+ 0 0 2 tcp 1000 C------ 0 0.0 3.0 0 0
- 0 0 2 tcp 1000 C------ 0 0.0 3.0 0 0
r 0.006 0 2 tcp 1000 C------ 0 0.0 3.0 0 0
+ 0.006 2 3 tcp 1000 C------ 0 0.0 3.0 0 0
- 0.006 2 3 tcp 1000 C------ 0 0.0 3.0 0 0
r 0.036 2 3 tcp 1000 C------ 0 0.0 3.0 0 0
+ 0.036 3 2 ack 40 C------ 0 3.0 0.0 0 1
- 0.036 3 2 ack 40 C------ 0 3.0 0.0 0 1
r 0.0564 3 2 ack 40 C------ 0 3.0 0.0 0 1
+ 0.0564 2 0 ack 40 C------ 0 3.0 0.0 0 1
- 0.0564 2 0 ack 40 C------ 0 3.0 0.0 0 1
r 0.06144 2 0 ack 40 C------ 0 3.0 0.0 0 1
+ 0.06144 0 2 tcp 1000 ------N 0 0.0 3.0 1 2
- 0.06144 0 2 tcp 1000 ------N 0 0.0 3.0 1 2
+ 0.06144 0 2 tcp 1000 ------N 0 0.0 3.0 2 3
- 0.06244 0 2 tcp 1000 ------N 0 0.0 3.0 2 3
r 0.06744 0 2 tcp 1000 ------N 0 0.0 3.0 1 2
+ 0.06744 2 3 tcp 1000 ------N 0 0.0 3.0 1 2
- 0.06744 2 3 tcp 1000 ------N 0 0.0 3.0 1 2
r 0.06844 0 2 tcp 1000 ------N 0 0.0 3.0 2 3
+ 0.06844 2 3 tcp 1000 ------N 0 0.0 3.0 2 3
- 0.07744 2 3 tcp 1000 ------N 0 0.0 3.0 2 3
r 0.09744 2 3 tcp 1000 ------N 0 0.0 3.0 1 2
+ 0.09744 3 2 ack 40 ------- 0 3.0 0.0 1 4
- 0.09744 3 2 ack 40 ------- 0 3.0 0.0 1 4
r 0.10744 2 3 tcp 1000 ------N 0 0.0 3.0 2 3
+ 0.10744 3 2 ack 40 ------- 0 3.0 0.0 2 5
- 0.10744 3 2 ack 40 ------- 0 3.0 0.0 2 5
r 0.11784 3 2 ack 40 ------- 0 3.0 0.0 1 4
+ 0.11784 2 0 ack 40 ------- 0 3.0 0.0 1 4
- 0.11784 2 0 ack 40 ------- 0 3.0 0.0 1 4
r 0.12288 2 0 ack 40 ------- 0 3.0 0.0 1 4
+ 0.12288 0 2 tcp 1000 ------N 0 0.0 3.0 3 6
- 0.12288 0 2 tcp 1000 ------N 0 0.0 3.0 3 6
+ 0.12288 0 2 tcp 1000 ------N 0 0.0 3.0 4 7
- 0.12388 0 2 tcp 1000 ------N 0 0.0 3.0 4 7
r 0.12784 3 2 ack 40 ------- 0 3.0 0.0 2 5
+ 0.12784 2 0 ack 40 ------- 0 3.0 0.0 2 5
- 0.12784 2 0 ack 40 ------- 0 3.0 0.0 2 5
r 0.12888 0 2 tcp 1000 ------N 0 0.0 3.0 3 6
+ 0.12888 2 3 tcp 1000 ------N 0 0.0 3.0 3 6
- 0.12888 2 3 tcp 1000 ------N 0 0.0 3.0 3 6
r 0.12988 0 2 tcp 1000 ------N 0 0.0 3.0 4 7
+ 0.12988 2 3 tcp 1000 ------N 0 0.0 3.0 4 7
r 0.13288 2 0 ack 40 ------- 0 3.0 0.0 2 5
+ 0.13288 0 2 tcp 1000 ------N 0 0.0 3.0 5 8
- 0.13288 0 2 tcp 1000 ------N 0 0.0 3.0 5 8
+ 0.13288 0 2 tcp 1000 ------N 0 0.0 3.0 6 9
- 0.13388 0 2 tcp 1000 ------N 0 0.0 3.0 6 9
- 0.13888 2 3 tcp 1000 ------N 0 0.0 3.0 4 7
r 0.13888 0 2 tcp 1000 ------N 0 0.0 3.0 5 8
+ 0.13888 2 3 tcp 1000 ------N 0 0.0 3.0 5 8
r 0.13988 0 2 tcp 1000 ------N 0 0.0 3.0 6 9
+ 0.13988 2 3 tcp 1000 ------N 0 0.0 3.0 6 9
- 0.14888 2 3 tcp 1000 ------N 0 0.0 3.0 5 8
r 0.15888 2 3 tcp 1000 ------N 0 0.0 3.0 3 6
+ 0.15888 3 2 ack 40 ------- 0 3.0 0.0 3 10
- 0.15888 3 2 ack 40 ------- 0 3.0 0.0 3 10
- 0.15888 2 3 tcp 1000 ------N 0 0.0 3.0 6 9
r 0.16888 2 3 tcp 1000 ------N 0 0.0 3.0 4 7
+ 0.16888 3 2 ack 40 ------- 0 3.0 0.0 4 11
- 0.16888 3 2 ack 40 ------- 0 3.0 0.0 4 11
r 0.17888 2 3 tcp 1000 ------N 0 0.0 3.0 5 8
+ 0.17888 3 2 ack 40 ------- 0 3.0 0.0 5 12
- 0.17888 3 2 ack 40 ------- 0 3.0 0.0 5 12
r 0.17928 3 2 ack 40 ------- 0 3.0 0.0 3 10
+ 0.17928 2 0 ack 40 ------- 0 3.0 0.0 3 10
- 0.17928 2 0 ack 40 ------- 0 3.0 0.0 3 10
r 0.18432 2 0 ack 40 ------- 0 3.0 0.0 3 10
+ 0.18432 0 2 tcp 1000 ------N 0 0.0 3.0 7 13
- 0.18432 0 2 tcp 1000 ------N 0 0.0 3.0 7 13
+ 0.18432 0 2 tcp 1000 ------N 0 0.0 3.0 8 14
- 0.18532 0 2 tcp 1000 ------N 0 0.0 3.0 8 14
r 0.18888 2 3 tcp 1000 ------N 0 0.0 3.0 6 9
+ 0.18888 3 2 ack 40 ------- 0 3.0 0.0 6 15
- 0.18888 3 2 ack 40 ------- 0 3.0 0.0 6 15
r 0.18928 3 2 ack 40 ------- 0 3.0 0.0 4 11
+ 0.18928 2 0 ack 40 ------- 0 3.0 0.0 4 11
- 0.18928 2 0 ack 40 ------- 0 3.0 0.0 4 11
r 0.19032 0 2 tcp 1000 ------N 0 0.0 3.0 7 13
+ 0.19032 2 3 tcp 1000 ------N 0 0.0 3.0 7 13
- 0.19032 2 3 tcp 1000 ------N 0 0.0 3.0 7 13
r 0.19132 0 2 tcp 1000 ------N 0 0.0 3.0 8 14
+ 0.19132 2 3 tcp 1000 ------N 0 0.0 3.0 8 14
r 0.19432 2 0 ack 40 ------- 0 3.0 0.0 4 11
+ 0.19432 0 2 tcp 1000 ------N 0 0.0 3.0 9 16
- 0.19432 0 2 tcp 1000 ------N 0 0.0 3.0 9 16
+ 0.19432 0 2 tcp 1000 ------N 0 0.0 3.0 10 17
- 0.19532 0 2 tcp 1000 ------N 0 0.0 3.0 10 17
r 0.19928 3 2 ack 40 ------- 0 3.0 0.0 5 12
+ 0.19928 2 0 ack 40 ------- 0 3.0 0.0 5 12
- 0.19928 2 0 ack 40 ------- 0 3.0 0.0 5 12
- 0.20032 2 3 tcp 1000 ------N 0 0.0 3.0 8 14
r 0.20032 0 2 tcp 1000 ------N 0 0.0 3.0 9 16
+ 0.20032 2 3 tcp 1000 ------N 0 0.0 3.0 9 16
r 0.20132 0 2 tcp 1000 ------N 0 0.0 3.0 10 17
+ 0.20132 2 3 tcp 1000 ------N 0 0.0 3.0 10 17
r 0.20432 2 0 ack 40 ------- 0 3.0 0.0 5 12
+ 0.20432 0 2 tcp 1000 ------N 0 0.0 3.0 11 18
- 0.20432 0 2 tcp 1000 ------N 0 0.0 3.0 11 18
+ 0.20432 0 2 tcp 1000 ------N 0 0.0 3.0 12 19
- 0.20532 0 2 tcp 1000 ------N 0 0.0 3.0 12 19
r 0.20928 3 2 ack 40 ------- 0 3.0 0.0 6 15
+ 0.20928 2 0 ack 40 ------- 0 3.0 0.0 6 15
- 0.20928 2 0 ack 40 ------- 0 3.0 0.0 6 15
- 0.21032 2 3 tcp 1000 ------N 0 0.0 3.0 9 16
r 0.21032 0 2 tcp 1000 ------N 0 0.0 3.0 11 18
+ 0.21032 2 3 tcp 1000 ------N 0 0.0 3.0 11 18
r 0.21132 0 2 tcp 1000 ------N 0 0.0 3.0 12 19
+ 0.21132 2 3 tcp 1000 ------N 0 0.0 3.0 12 19
r 0.21432 2 0 ack 40 ------- 0 3.0 0.0 6 15
+ 0.21432 0 2 tcp 1000 ------N 0 0.0 3.0 13 20
- 0.21432 0 2 tcp 1000 ------N 0 0.0 3.0 13 20
+ 0.21432 0 2 tcp 1000 ------N 0 0.0 3.0 14 21
- 0.21532 0 2 tcp 1000 ------N 0 0.0 3.0 14 21
r 0.22032 2 3 tcp 1000 ------N 0 0.0 3.0 7 13
+ 0.22032 3 2 ack 40 ------- 0 3.0 0.0 7 22
- 0.22032 3 2 ack 40 ------- 0 3.0 0.0 7 22
- 0.22032 2 3 tcp 1000 ------N 0 0.0 3.0 10 17
r 0.22032 0 2 tcp 1000 ------N 0 0.0 3.0 13 20
+ 0.22032 2 3 tcp 1000 ------N 0 0.0 3.0 13 20
r 0.22132 0 2 tcp 1000 ------N 0 0.0 3.0 14 21
+ 0.22132 2 3 tcp 1000 ------N 0 0.0 3.0 14 21
r 0.23032 2 3 tcp 1000 ------N 0 0.0 3.0 8 14
+ 0.23032 3 2 ack 40 ------- 0 3.0 0.0 8 23
- 0.23032 3 2 ack 40 ------- 0 3.0 0.0 8 23
- 0.23032 2 3 tcp 1000 ------N 0 0.0 3.0 11 18
r 0.24032 2 3 tcp 1000 ------N 0 0.0 3.0 9 16
+ 0.24032 3 2 ack 40 ------- 0 3.0 0.0 9 24
- 0.24032 3 2 ack 40 ------- 0 3.0 0.0 9 24
- 0.24032 2 3 tcp 1000 ------N 0 0.0 3.0 12 19
r 0.24072 3 2 ack 40 ------- 0 3.0 0.0 7 22
+ 0.24072 2 0 ack 40 ------- 0 3.0 0.0 7 22
- 0.24072 2 0 ack 40 ------- 0 3.0 0.0 7 22
r 0.24576 2 0 ack 40 ------- 0 3.0 0.0 7 22
+ 0.24576 0 2 tcp 1000 ------N 0 0.0 3.0 15 25
- 0.24576 0 2 tcp 1000 ------N 0 0.0 3.0 15 25
+ 0.24576 0 2 tcp 1000 ------N 0 0.0 3.0 16 26
- 0.24676 0 2 tcp 1000 ------N 0 0.0 3.0 16 26
r 0.25032 2 3 tcp 1000 ------N 0 0.0 3.0 10 17
+ 0.25032 3 2 ack 40 ------- 0 3.0 0.0 10 27
- 0.25032 3 2 ack 40 ------- 0 3.0 0.0 10 27
- 0.25032 2 3 tcp 1000 ------N 0 0.0 3.0 13 20
r 0.25072 3 2 ack 40 ------- 0 3.0 0.0 8 23
+ 0.25072 2 0 ack 40 ------- 0 3.0 0.0 8 23
- 0.25072 2 0 ack 40 ------- 0 3.0 0.0 8 23
r 0.25176 0 2 tcp 1000 ------N 0 0.0 3.0 15 25
+ 0.25176 2 3 tcp 1000 ------N 0 0.0 3.0 15 25
r 0.25276 0 2 tcp 1000 ------N 0 0.0 3.0 16 26
+ 0.25276 2 3 tcp 1000 ------N 0 0.0 3.0 16 26
r 0.25576 2 0 ack 40 ------- 0 3.0 0.0 8 23
+ 0.25576 0 2 tcp 1000 ------N 0 0.0 3.0 17 28
- 0.25576 0 2 tcp 1000 ------N 0 0.0 3.0 17 28
+ 0.25576 0 2 tcp 1000 ------N 0 0.0 3.0 18 29
- 0.25676 0 2 tcp 1000 ------N 0 0.0 3.0 18 29
r 0.26032 2 3 tcp 1000 ------N 0 0.0 3.0 11 18
+ 0.26032 3 2 ack 40 ------- 0 3.0 0.0 11 30
- 0.26032 3 2 ack 40 ------- 0 3.0 0.0 11 30
- 0.26032 2 3 tcp 1000 ------N 0 0.0 3.0 14 21
r 0.26072 3 2 ack 40 ------- 0 3.0 0.0 9 24
+ 0.26072 2 0 ack 40 ------- 0 3.0 0.0 9 24
- 0.26072 2 0 ack 40 ------- 0 3.0 0.0 9 24
r 0.26176 0 2 tcp 1000 ------N 0 0.0 3.0 17 28
+ 0.26176 2 3 tcp 1000 ------N 0 0.0 3.0 17 28
r 0.26276 0 2 tcp 1000 ------N 0 0.0 3.0 18 29
+ 0.26276 2 3 tcp 1000 ------N 0 0.0 3.0 18 29
r 0.26576 2 0 ack 40 ------- 0 3.0 0.0 9 24
+ 0.26576 0 2 tcp 1000 ------N 0 0.0 3.0 19 31
- 0.26576 0 2 tcp 1000 ------N 0 0.0 3.0 19 31
+ 0.26576 0 2 tcp 1000 ------N 0 0.0 3.0 20 32
- 0.26676 0 2 tcp 1000 ------N 0 0.0 3.0 20 32
r 0.27032 2 3 tcp 1000 ------N 0 0.0 3.0 12 19
+ 0.27032 3 2 ack 40 ------- 0 3.0 0.0 12 33
- 0.27032 3 2 ack 40 ------- 0 3.0 0.0 12 33
- 0.27032 2 3 tcp 1000 ------N 0 0.0 3.0 15 25
r 0.27072 3 2 ack 40 ------- 0 3.0 0.0 10 27
+ 0.27072 2 0 ack 40 ------- 0 3.0 0.0 10 27
- 0.27072 2 0 ack 40 ------- 0 3.0 0.0 10 27
r 0.27176 0 2 tcp 1000 ------N 0 0.0 3.0 19 31
+ 0.27176 2 3 tcp 1000 ------N 0 0.0 3.0 19 31
r 0.27276 0 2 tcp 1000 ------N 0 0.0 3.0 20 32
+ 0.27276 2 3 tcp 1000 ------N 0 0.0 3.0 20 32
r 0.27576 2 0 ack 40 ------- 0 3.0 0.0 10 27
+ 0.27576 0 2 tcp 1000 ------N 0 0.0 3.0 21 34
- 0.27576 0 2 tcp 1000 ------N 0 0.0 3.0 21 34
+ 0.27576 0 2 tcp 1000 ------N 0 0.0 3.0 22 35
- 0.27676 0 2 tcp 1000 ------N 0 0.0 3.0 22 35
r 0.28032 2 3 tcp 1000 ------N 0 0.0 3.0 13 20
+ 0.28032 3 2 ack 40 ------- 0 3.0 0.0 13 36
- 0.28032 3 2 ack 40 ------- 0 3.0 0.0 13 36
- 0.28032 2 3 tcp 1000 ------N 0 0.0 3.0 16 26
r 0.28072 3 2 ack 40 ------- 0 3.0 0.0 11 30
+ 0.28072 2 0 ack 40 ------- 0 3.0 0.0 11 30
- 0.28072 2 0 ack 40 ------- 0 3.0 0.0 11 30
r 0.28176 0 2 tcp 1000 ------N 0 0.0 3.0 21 34
+ 0.28176 2 3 tcp 1000 ------N 0 0.0 3.0 21 34
r 0.28276 0 2 tcp 1000 ------N 0 0.0 3.0 22 35
+ 0.28276 2 3 tcp 1000 ------N 0 0.0 3.0 22 35
r 0.28576 2 0 ack 40 ------- 0 3.0 0.0 11 30
+ 0.28576 0 2 tcp 1000 ------N 0 0.0 3.0 23 37
- 0.28576 0 2 tcp 1000 ------N 0 0.0 3.0 23 37
+ 0.28576 0 2 tcp 1000 ------N 0 0.0 3.0 24 38
- 0.28676 0 2 tcp 1000 ------N 0 0.0 3.0 24 38
r 0.29032 2 3 tcp 1000 ------N 0 0.0 3.0 14 21
+ 0.29032 3 2 ack 40 ------- 0 3.0 0.0 14 39
- 0.29032 3 2 ack 40 ------- 0 3.0 0.0 14 39
- 0.29032 2 3 tcp 1000 ------N 0 0.0 3.0 17 28
r 0.29072 3 2 ack 40 ------- 0 3.0 0.0 12 33
+ 0.29072 2 0 ack 40 ------- 0 3.0 0.0 12 33
- 0.29072 2 0 ack 40 ------- 0 3.0 0.0 12 33
r 0.29176 0 2 tcp 1000 ------N 0 0.0 3.0 23 37
+ 0.29176 2 3 tcp 1000 ------N 0 0.0 3.0 23 37
r 0.29276 0 2 tcp 1000 ------N 0 0.0 3.0 24 38
+ 0.29276 2 3 tcp 1000 ------N 0 0.0 3.0 24 38
r 0.29576 2 0 ack 40 ------- 0 3.0 0.0 12 33
+ 0.29576 0 2 tcp 1000 ------N 0 0.0 3.0 25 40
- 0.29576 0 2 tcp 1000 ------N 0 0.0 3.0 25 40
+ 0.29576 0 2 tcp 1000 ------N 0 0.0 3.0 26 41
- 0.29676 0 2 tcp 1000 ------N 0 0.0 3.0 26 41
r 0.30032 2 3 tcp 1000 ------N 0 0.0 3.0 15 25
+ 0.30032 3 2 ack 40 ------- 0 3.0 0.0 15 42
- 0.30032 3 2 ack 40 ------- 0 3.0 0.0 15 42
- 0.30032 2 3 tcp 1000 ------N 0 0.0 3.0 18 29
r 0.30072 3 2 ack 40 ------- 0 3.0 0.0 13 36
+ 0.30072 2 0 ack 40 ------- 0 3.0 0.0 13 36
- 0.30072 2 0 ack 40 ------- 0 3.0 0.0 13 36
r 0.30176 0 2 tcp 1000 ------N 0 0.0 3.0 25 40
+ 0.30176 2 3 tcp 1000 ------N 0 0.0 3.0 25 40
r 0.30276 0 2 tcp 1000 ------N 0 0.0 3.0 26 41
+ 0.30276 2 3 tcp 1000 ------N 0 0.0 3.0 26 41
r 0.30576 2 0 ack 40 ------- 0 3.0 0.0 13 36
+ 0.30576 0 2 tcp 1000 ------N 0 0.0 3.0 27 43
- 0.30576 0 2 tcp 1000 ------N 0 0.0 3.0 27 43
+ 0.30576 0 2 tcp 1000 ------N 0 0.0 3.0 28 44
- 0.30676 0 2 tcp 1000 ------N 0 0.0 3.0 28 44
r 0.31032 2 3 tcp 1000 ------N 0 0.0 3.0 16 26
+ 0.31032 3 2 ack 40 ------- 0 3.0 0.0 16 45
- 0.31032 3 2 ack 40 ------- 0 3.0 0.0 16 45
- 0.31032 2 3 tcp 1000 ------N 0 0.0 3.0 19 31
r 0.31072 3 2 ack 40 ------- 0 3.0 0.0 14 39
+ 0.31072 2 0 ack 40 ------- 0 3.0 0.0 14 39
- 0.31072 2 0 ack 40 ------- 0 3.0 0.0 14 39
r 0.31176 0 2 tcp 1000 ------N 0 0.0 3.0 27 43
+ 0.31176 2 3 tcp 1000 ------N 0 0.0 3.0 27 43
r 0.31276 0 2 tcp 1000 ------N 0 0.0 3.0 28 44
+ 0.31276 2 3 tcp 1000 ------N 0 0.0 3.0 28 44
r 0.31576 2 0 ack 40 ------- 0 3.0 0.0 14 39
+ 0.31576 0 2 tcp 1000 ------N 0 0.0 3.0 29 46
- 0.31576 0 2 tcp 1000 ------N 0 0.0 3.0 29 46
+ 0.31576 0 2 tcp 1000 ------N 0 0.0 3.0 30 47
- 0.31676 0 2 tcp 1000 ------N 0 0.0 3.0 30 47
r 0.32032 2 3 tcp 1000 ------N 0 0.0 3.0 17 28
+ 0.32032 3 2 ack 40 ------- 0 3.0 0.0 17 48
- 0.32032 3 2 ack 40 ------- 0 3.0 0.0 17 48
- 0.32032 2 3 tcp 1000 ------N 0 0.0 3.0 20 32
r 0.32072 3 2 ack 40 ------- 0 3.0 0.0 15 42
+ 0.32072 2 0 ack 40 ------- 0 3.0 0.0 15 42
- 0.32072 2 0 ack 40 ------- 0 3.0 0.0 15 42
r 0.32176 0 2 tcp 1000 ------N 0 0.0 3.0 29 46
+ 0.32176 2 3 tcp 1000 ------N 0 0.0 3.0 29 46
r 0.32276 0 2 tcp 1000 ------N 0 0.0 3.0 30 47
+ 0.32276 2 3 tcp 1000 ------N 0 0.0 3.0 30 47
r 0.32576 2 0 ack 40 ------- 0 3.0 0.0 15 42
+ 0.32576 0 2 tcp 1000 ------N 0 0.0 3.0 31 49
- 0.32576 0 2 tcp 1000 ------N 0 0.0 3.0 31 49
+ 0.32576 0 2 tcp 1000 ------N 0 0.0 3.0 32 50
- 0.32676 0 2 tcp 1000 ------N 0 0.0 3.0 32 50
r 0.33032 2 3 tcp 1000 ------N 0 0.0 3.0 18 29
+ 0.33032 3 2 ack 40 ------- 0 3.0 0.0 18 51
- 0.33032 3 2 ack 40 ------- 0 3.0 0.0 18 51
- 0.33032 2 3 tcp 1000 ------N 0 0.0 3.0 21 34
r 0.33072 3 2 ack 40 ------- 0 3.0 0.0 16 45
+ 0.33072 2 0 ack 40 ------- 0 3.0 0.0 16 45
- 0.33072 2 0 ack 40 ------- 0 3.0 0.0 16 45
r 0.33176 0 2 tcp 1000 ------N 0 0.0 3.0 31 49
+ 0.33176 2 3 tcp 1000 ------N 0 0.0 3.0 31 49
r 0.33276 0 2 tcp 1000 ------N 0 0.0 3.0 32 50
+ 0.33276 2 3 tcp 1000 ------N 0 0.0 3.0 32 50
r 0.33576 2 0 ack 40 ------- 0 3.0 0.0 16 45
+ 0.33576 0 2 tcp 1000 ------N 0 0.0 3.0 33 52
- 0.33576 0 2 tcp 1000 ------N 0 0.0 3.0 33 52
+ 0.33576 0 2 tcp 1000 ------N 0 0.0 3.0 34 53
- 0.33676 0 2 tcp 1000 ------N 0 0.0 3.0 34 53
r 0.34032 2 3 tcp 1000 ------N 0 0.0 3.0 19 31
+ 0.34032 3 2 ack 40 ------- 0 3.0 0.0 19 54
- 0.34032 3 2 ack 40 ------- 0 3.0 0.0 19 54
- 0.34032 2 3 tcp 1000 ------N 0 0.0 3.0 22 35
r 0.34072 3 2 ack 40 ------- 0 3.0 0.0 17 48
+ 0.34072 2 0 ack 40 ------- 0 3.0 0.0 17 48
- 0.34072 2 0 ack 40 ------- 0 3.0 0.0 17 48
r 0.34176 0 2 tcp 1000 ------N 0 0.0 3.0 33 52
+ 0.34176 2 3 tcp 1000 ------N 0 0.0 3.0 33 52
r 0.34276 0 2 tcp 1000 ------N 0 0.0 3.0 34 53
+ 0.34276 2 3 tcp 1000 ------N 0 0.0 3.0 34 53
r 0.34576 2 0 ack 40 ------- 0 3.0 0.0 17 48
+ 0.34576 0 2 tcp 1000 ------N 0 0.0 3.0 35 55
- 0.34576 0 2 tcp 1000 ------N 0 0.0 3.0 35 55
+ 0.34576 0 2 tcp 1000 ------N 0 0.0 3.0 36 56
- 0.34676 0 2 tcp 1000 ------N 0 0.0 3.0 36 56
r 0.35032 2 3 tcp 1000 ------N 0 0.0 3.0 20 32
+ 0.35032 3 2 ack 40 ------- 0 3.0 0.0 20 57
- 0.35032 3 2 ack 40 ------- 0 3.0 0.0 20 57
- 0.35032 2 3 tcp 1000 ------N 0 0.0 3.0 23 37
r 0.35072 3 2 ack 40 ------- 0 3.0 0.0 18 51
+ 0.35072 2 0 ack 40 ------- 0 3.0 0.0 18 51
- 0.35072 2 0 ack 40 ------- 0 3.0 0.0 18 51
r 0.35176 0 2 tcp 1000 ------N 0 0.0 3.0 35 55
+ 0.35176 2 3 tcp 1000 ------N 0 0.0 3.0 35 55
r 0.35276 0 2 tcp 1000 ------N 0 0.0 3.0 36 56
+ 0.35276 2 3 tcp 1000 ------N 0 0.0 3.0 36 56
r 0.35576 2 0 ack 40 ------- 0 3.0 0.0 18 51
+ 0.35576 0 2 tcp 1000 ------N 0 0.0 3.0 37 58
- 0.35576 0 2 tcp 1000 ------N 0 0.0 3.0 37 58
+ 0.35576 0 2 tcp 1000 ------N 0 0.0 3.0 38 59
- 0.35676 0 2 tcp 1000 ------N 0 0.0 3.0 38 59
r 0.36032 2 3 tcp 1000 ------N 0 0.0 3.0 21 34
+ 0.36032 3 2 ack 40 ------- 0 3.0 0.0 21 60
- 0.36032 3 2 ack 40 ------- 0 3.0 0.0 21 60
- 0.36032 2 3 tcp 1000 ------N 0 0.0 3.0 24 38
r 0.36072 3 2 ack 40 ------- 0 3.0 0.0 19 54
+ 0.36072 2 0 ack 40 ------- 0 3.0 0.0 19 54
- 0.36072 2 0 ack 40 ------- 0 3.0 0.0 19 54
r 0.36176 0 2 tcp 1000 ------N 0 0.0 3.0 37 58
+ 0.36176 2 3 tcp 1000 ------N 0 0.0 3.0 37 58
r 0.36276 0 2 tcp 1000 ------N 0 0.0 3.0 38 59
+ 0.36276 2 3 tcp 1000 ------N 0 0.0 3.0 38 59
r 0.36576 2 0 ack 40 ------- 0 3.0 0.0 19 54
+ 0.36576 0 2 tcp 1000 ------N 0 0.0 3.0 39 61
- 0.36576 0 2 tcp 1000 ------N 0 0.0 3.0 39 61
+ 0.36576 0 2 tcp 1000 ------N 0 0.0 3.0 40 62
- 0.36676 0 2 tcp 1000 ------N 0 0.0 3.0 40 62
r 0.37032 2 3 tcp 1000 ------N 0 0.0 3.0 22 35
+ 0.37032 3 2 ack 40 ------- 0 3.0 0.0 22 63
- 0.37032 3 2 ack 40 ------- 0 3.0 0.0 22 63
- 0.37032 2 3 tcp 1000 ------N 0 0.0 3.0 25 40
r 0.37072 3 2 ack 40 ------- 0 3.0 0.0 20 57
+ 0.37072 2 0 ack 40 ------- 0 3.0 0.0 20 57
- 0.37072 2 0 ack 40 ------- 0 3.0 0.0 20 57
r 0.37176 0 2 tcp 1000 ------N 0 0.0 3.0 39 61
+ 0.37176 2 3 tcp 1000 ------N 0 0.0 3.0 39 61
r 0.37276 0 2 tcp 1000 ------N 0 0.0 3.0 40 62
+ 0.37276 2 3 tcp 1000 ------N 0 0.0 3.0 40 62
r 0.37576 2 0 ack 40 ------- 0 3.0 0.0 20 57
+ 0.37576 0 2 tcp 1000 ------N 0 0.0 3.0 41 64
- 0.37576 0 2 tcp 1000 ------N 0 0.0 3.0 41 64
+ 0.37576 0 2 tcp 1000 ------N 0 0.0 3.0 42 65
- 0.37676 0 2 tcp 1000 ------N 0 0.0 3.0 42 65
r 0.38032 2 3 tcp 1000 ------N 0 0.0 3.0 23 37
+ 0.38032 3 2 ack 40 ------- 0 3.0 0.0 23 66
- 0.38032 3 2 ack 40 ------- 0 3.0 0.0 23 66
- 0.38032 2 3 tcp 1000 ------N 0 0.0 3.0 26 41
r 0.38072 3 2 ack 40 ------- 0 3.0 0.0 21 60
+ 0.38072 2 0 ack 40 ------- 0 3.0 0.0 21 60
- 0.38072 2 0 ack 40 ------- 0 3.0 0.0 21 60
r 0.38176 0 2 tcp 1000 ------N 0 0.0 3.0 41 64
+ 0.38176 2 3 tcp 1000 ------N 0 0.0 3.0 41 64
r 0.38276 0 2 tcp 1000 ------N 0 0.0 3.0 42 65
+ 0.38276 2 3 tcp 1000 ------N 0 0.0 3.0 42 65
r 0.38576 2 0 ack 40 ------- 0 3.0 0.0 21 60
+ 0.38576 0 2 tcp 1000 ------N 0 0.0 3.0 43 67
- 0.38576 0 2 tcp 1000 ------N 0 0.0 3.0 43 67
+ 0.38576 0 2 tcp 1000 ------N 0 0.0 3.0 44 68
- 0.38676 0 2 tcp 1000 ------N 0 0.0 3.0 44 68
r 0.39032 2 3 tcp 1000 ------N 0 0.0 3.0 24 38
+ 0.39032 3 2 ack 40 ------- 0 3.0 0.0 24 69
- 0.39032 3 2 ack 40 ------- 0 3.0 0.0 24 69
- 0.39032 2 3 tcp 1000 ------N 0 0.0 3.0 27 43
r 0.39072 3 2 ack 40 ------- 0 3.0 0.0 22 63
+ 0.39072 2 0 ack 40 ------- 0 3.0 0.0 22 63
- 0.39072 2 0 ack 40 ------- 0 3.0 0.0 22 63
r 0.39176 0 2 tcp 1000 ------N 0 0.0 3.0 43 67
+ 0.39176 2 3 tcp 1000 ------N 0 0.0 3.0 43 67
r 0.39276 0 2 tcp 1000 ------N 0 0.0 3.0 44 68
+ 0.39276 2 3 tcp 1000 ------N 0 0.0 3.0 44 68
r 0.39576 2 0 ack 40 ------- 0 3.0 0.0 22 63
+ 0.39576 0 2 tcp 1000 ------N 0 0.0 3.0 45 70
- 0.39576 0 2 tcp 1000 ------N 0 0.0 3.0 45 70
+ 0.39576 0 2 tcp 1000 ------N 0 0.0 3.0 46 71
- 0.39676 0 2 tcp 1000 ------N 0 0.0 3.0 46 71
r 0.40032 2 3 tcp 1000 ------N 0 0.0 3.0 25 40
+ 0.40032 3 2 ack 40 ------- 0 3.0 0.0 25 72
- 0.40032 3 2 ack 40 ------- 0 3.0 0.0 25 72
- 0.40032 2 3 tcp 1000 ------N 0 0.0 3.0 28 44
r 0.40072 3 2 ack 40 ------- 0 3.0 0.0 23 66
+ 0.40072 2 0 ack 40 ------- 0 3.0 0.0 23 66
- 0.40072 2 0 ack 40 ------- 0 3.0 0.0 23 66
r 0.40176 0 2 tcp 1000 ------N 0 0.0 3.0 45 70
+ 0.40176 2 3 tcp 1000 ------N 0 0.0 3.0 45 70
r 0.40276 0 2 tcp 1000 ------N 0 0.0 3.0 46 71
+ 0.40276 2 3 tcp 1000 ------N 0 0.0 3.0 46 71
r 0.40576 2 0 ack 40 ------- 0 3.0 0.0 23 66
+ 0.40576 0 2 tcp 1000 ------N 0 0.0 3.0 47 73
- 0.40576 0 2 tcp 1000 ------N 0 0.0 3.0 47 73
+ 0.40576 0 2 tcp 1000 ------N 0 0.0 3.0 48 74
- 0.40676 0 2 tcp 1000 ------N 0 0.0 3.0 48 74
r 0.41032 2 3 tcp 1000 ------N 0 0.0 3.0 26 41
+ 0.41032 3 2 ack 40 ------- 0 3.0 0.0 26 75
- 0.41032 3 2 ack 40 ------- 0 3.0 0.0 26 75
- 0.41032 2 3 tcp 1000 ------N 0 0.0 3.0 29 46
r 0.41072 3 2 ack 40 ------- 0 3.0 0.0 24 69
+ 0.41072 2 0 ack 40 ------- 0 3.0 0.0 24 69
- 0.41072 2 0 ack 40 ------- 0 3.0 0.0 24 69
r 0.41176 0 2 tcp 1000 ------N 0 0.0 3.0 47 73
+ 0.41176 2 3 tcp 1000 ------N 0 0.0 3.0 47 73
r 0.41276 0 2 tcp 1000 ------N 0 0.0 3.0 48 74
+ 0.41276 2 3 tcp 1000 ------N 0 0.0 3.0 48 74
r 0.41576 2 0 ack 40 ------- 0 3.0 0.0 24 69
+ 0.41576 0 2 tcp 1000 ------N 0 0.0 3.0 49 76
- 0.41576 0 2 tcp 1000 ------N 0 0.0 3.0 49 76
+ 0.41576 0 2 tcp 1000 ------N 0 0.0 3.0 50 77
- 0.41676 0 2 tcp 1000 ------N 0 0.0 3.0 50 77
r 0.42032 2 3 tcp 1000 ------N 0 0.0 3.0 27 43
+ 0.42032 3 2 ack 40 ------- 0 3.0 0.0 27 78
- 0.42032 3 2 ack 40 ------- 0 3.0 0.0 27 78
- 0.42032 2 3 tcp 1000 ------N 0 0.0 3.0 30 47
r 0.42072 3 2 ack 40 ------- 0 3.0 0.0 25 72
+ 0.42072 2 0 ack 40 ------- 0 3.0 0.0 25 72
- 0.42072 2 0 ack 40 ------- 0 3.0 0.0 25 72
r 0.42176 0 2 tcp 1000 ------N 0 0.0 3.0 49 76
+ 0.42176 2 3 tcp 1000 ------N 0 0.0 3.0 49 76
r 0.42276 0 2 tcp 1000 ------N 0 0.0 3.0 50 77
+ 0.42276 2 3 tcp 1000 ------N 0 0.0 3.0 50 77
r 0.42576 2 0 ack 40 ------- 0 3.0 0.0 25 72
+ 0.42576 0 2 tcp 1000 ------N 0 0.0 3.0 51 79
- 0.42576 0 2 tcp 1000 ------N 0 0.0 3.0 51 79
+ 0.42576 0 2 tcp 1000 ------N 0 0.0 3.0 52 80
- 0.42676 0 2 tcp 1000 ------N 0 0.0 3.0 52 80
r 0.43032 2 3 tcp 1000 ------N 0 0.0 3.0 28 44
+ 0.43032 3 2 ack 40 ------- 0 3.0 0.0 28 81
- 0.43032 3 2 ack 40 ------- 0 3.0 0.0 28 81
- 0.43032 2 3 tcp 1000 ------N 0 0.0 3.0 31 49
r 0.43072 3 2 ack 40 ------- 0 3.0 0.0 26 75
+ 0.43072 2 0 ack 40 ------- 0 3.0 0.0 26 75
- 0.43072 2 0 ack 40 ------- 0 3.0 0.0 26 75
r 0.43176 0 2 tcp 1000 ------N 0 0.0 3.0 51 79
+ 0.43176 2 3 tcp 1000 ------N 0 0.0 3.0 51 79
r 0.43276 0 2 tcp 1000 ------N 0 0.0 3.0 52 80
+ 0.43276 2 3 tcp 1000 ------N 0 0.0 3.0 52 80
r 0.43576 2 0 ack 40 ------- 0 3.0 0.0 26 75
+ 0.43576 0 2 tcp 1000 ------N 0 0.0 3.0 53 82
- 0.43576 0 2 tcp 1000 ------N 0 0.0 3.0 53 82
+ 0.43576 0 2 tcp 1000 ------N 0 0.0 3.0 54 83
- 0.43676 0 2 tcp 1000 ------N 0 0.0 3.0 54 83
r 0.44032 2 3 tcp 1000 ------N 0 0.0 3.0 29 46
+ 0.44032 3 2 ack 40 ------- 0 3.0 0.0 29 84
- 0.44032 3 2 ack 40 ------- 0 3.0 0.0 29 84
- 0.44032 2 3 tcp 1000 ------N 0 0.0 3.0 32 50
r 0.44072 3 2 ack 40 ------- 0 3.0 0.0 27 78
+ 0.44072 2 0 ack 40 ------- 0 3.0 0.0 27 78
- 0.44072 2 0 ack 40 ------- 0 3.0 0.0 27 78
r 0.44176 0 2 tcp 1000 ------N 0 0.0 3.0 53 82
+ 0.44176 2 3 tcp 1000 ------N 0 0.0 3.0 53 82
r 0.44276 0 2 tcp 1000 ------N 0 0.0 3.0 54 83
+ 0.44276 2 3 tcp 1000 ------N 0 0.0 3.0 54 83
r 0.44576 2 0 ack 40 ------- 0 3.0 0.0 27 78
+ 0.44576 0 2 tcp 1000 ------N 0 0.0 3.0 55 85
- 0.44576 0 2 tcp 1000 ------N 0 0.0 3.0 55 85
+ 0.44576 0 2 tcp 1000 ------N 0 0.0 3.0 56 86
- 0.44676 0 2 tcp 1000 ------N 0 0.0 3.0 56 86
r 0.45032 2 3 tcp 1000 ------N 0 0.0 3.0 30 47
+ 0.45032 3 2 ack 40 ------- 0 3.0 0.0 30 87
- 0.45032 3 2 ack 40 ------- 0 3.0 0.0 30 87
- 0.45032 2 3 tcp 1000 ------N 0 0.0 3.0 33 52
r 0.45072 3 2 ack 40 ------- 0 3.0 0.0 28 81
+ 0.45072 2 0 ack 40 ------- 0 3.0 0.0 28 81
- 0.45072 2 0 ack 40 ------- 0 3.0 0.0 28 81
r 0.45176 0 2 tcp 1000 ------N 0 0.0 3.0 55 85
+ 0.45176 2 3 tcp 1000 ------N 0 0.0 3.0 55 85
r 0.45276 0 2 tcp 1000 ------N 0 0.0 3.0 56 86
+ 0.45276 2 3 tcp 1000 ------N 0 0.0 3.0 56 86
r 0.45576 2 0 ack 40 ------- 0 3.0 0.0 28 81
+ 0.45576 0 2 tcp 1000 ------N 0 0.0 3.0 57 88
- 0.45576 0 2 tcp 1000 ------N 0 0.0 3.0 57 88
+ 0.45576 0 2 tcp 1000 ------N 0 0.0 3.0 58 89
- 0.45676 0 2 tcp 1000 ------N 0 0.0 3.0 58 89
r 0.46032 2 3 tcp 1000 ------N 0 0.0 3.0 31 49
+ 0.46032 3 2 ack 40 ------- 0 3.0 0.0 31 90
- 0.46032 3 2 ack 40 ------- 0 3.0 0.0 31 90
- 0.46032 2 3 tcp 1000 ------N 0 0.0 3.0 34 53
r 0.46072 3 2 ack 40 ------- 0 3.0 0.0 29 84
+ 0.46072 2 0 ack 40 ------- 0 3.0 0.0 29 84
- 0.46072 2 0 ack 40 ------- 0 3.0 0.0 29 84
r 0.46176 0 2 tcp 1000 ------N 0 0.0 3.0 57 88
+ 0.46176 2 3 tcp 1000 ------N 0 0.0 3.0 57 88
r 0.46276 0 2 tcp 1000 ------N 0 0.0 3.0 58 89
+ 0.46276 2 3 tcp 1000 ------N 0 0.0 3.0 58 89
r 0.46576 2 0 ack 40 ------- 0 3.0 0.0 29 84
+ 0.46576 0 2 tcp 1000 ------N 0 0.0 3.0 59 91
- 0.46576 0 2 tcp 1000 ------N 0 0.0 3.0 59 91
r 0.47032 2 3 tcp 1000 ------N 0 0.0 3.0 32 50
+ 0.47032 3 2 ack 40 ------- 0 3.0 0.0 32 92
- 0.47032 3 2 ack 40 ------- 0 3.0 0.0 32 92
- 0.47032 2 3 tcp 1000 ------N 0 0.0 3.0 35 55
r 0.47072 3 2 ack 40 ------- 0 3.0 0.0 30 87
+ 0.47072 2 0 ack 40 ------- 0 3.0 0.0 30 87
- 0.47072 2 0 ack 40 ------- 0 3.0 0.0 30 87
r 0.47176 0 2 tcp 1000 ------N 0 0.0 3.0 59 91
+ 0.47176 2 3 tcp 1000 ------N 0 0.0 3.0 59 91
r 0.47576 2 0 ack 40 ------- 0 3.0 0.0 30 87
+ 0.47576 0 2 tcp 1000 ------N 0 0.0 3.0 60 93
- 0.47576 0 2 tcp 1000 ------N 0 0.0 3.0 60 93
r 0.48032 2 3 tcp 1000 ------N 0 0.0 3.0 33 52
+ 0.48032 3 2 ack 40 ------- 0 3.0 0.0 33 94
- 0.48032 3 2 ack 40 ------- 0 3.0 0.0 33 94
- 0.48032 2 3 tcp 1000 ------N 0 0.0 3.0 36 56
r 0.48072 3 2 ack 40 ------- 0 3.0 0.0 31 90
+ 0.48072 2 0 ack 40 ------- 0 3.0 0.0 31 90
- 0.48072 2 0 ack 40 ------- 0 3.0 0.0 31 90
r 0.48176 0 2 tcp 1000 ------N 0 0.0 3.0 60 93
+ 0.48176 2 3 tcp 1000 ------N 0 0.0 3.0 60 93
r 0.48576 2 0 ack 40 ------- 0 3.0 0.0 31 90
+ 0.48576 0 2 tcp 1000 ------N 0 0.0 3.0 61 95
- 0.48576 0 2 tcp 1000 ------N 0 0.0 3.0 61 95
r 0.49032 2 3 tcp 1000 ------N 0 0.0 3.0 34 53
+ 0.49032 3 2 ack 40 ------- 0 3.0 0.0 34 96
- 0.49032 3 2 ack 40 ------- 0 3.0 0.0 34 96
- 0.49032 2 3 tcp 1000 ------N 0 0.0 3.0 37 58
r 0.49072 3 2 ack 40 ------- 0 3.0 0.0 32 92
+ 0.49072 2 0 ack 40 ------- 0 3.0 0.0 32 92
- 0.49072 2 0 ack 40 ------- 0 3.0 0.0 32 92
r 0.49176 0 2 tcp 1000 ------N 0 0.0 3.0 61 95
+ 0.49176 2 3 tcp 1000 ------N 0 0.0 3.0 61 95
r 0.49576 2 0 ack 40 ------- 0 3.0 0.0 32 92
+ 0.49576 0 2 tcp 1000 ------N 0 0.0 3.0 62 97
- 0.49576 0 2 tcp 1000 ------N 0 0.0 3.0 62 97
r 0.50032 2 3 tcp 1000 ------N 0 0.0 3.0 35 55
+ 0.50032 3 2 ack 40 ------- 0 3.0 0.0 35 98
- 0.50032 3 2 ack 40 ------- 0 3.0 0.0 35 98
- 0.50032 2 3 tcp 1000 ------N 0 0.0 3.0 38 59
r 0.50072 3 2 ack 40 ------- 0 3.0 0.0 33 94
+ 0.50072 2 0 ack 40 ------- 0 3.0 0.0 33 94
- 0.50072 2 0 ack 40 ------- 0 3.0 0.0 33 94
r 0.50176 0 2 tcp 1000 ------N 0 0.0 3.0 62 97
+ 0.50176 2 3 tcp 1000 ------N 0 0.0 3.0 62 97
r 0.50576 2 0 ack 40 ------- 0 3.0 0.0 33 94
+ 0.50576 0 2 tcp 1000 ------N 0 0.0 3.0 63 99
- 0.50576 0 2 tcp 1000 ------N 0 0.0 3.0 63 99
r 0.51032 2 3 tcp 1000 ------N 0 0.0 3.0 36 56
+ 0.51032 3 2 ack 40 ------- 0 3.0 0.0 36 100
- 0.51032 3 2 ack 40 ------- 0 3.0 0.0 36 100
- 0.51032 2 3 tcp 1000 ------N 0 0.0 3.0 39 61
r 0.51072 3 2 ack 40 ------- 0 3.0 0.0 34 96
+ 0.51072 2 0 ack 40 ------- 0 3.0 0.0 34 96
- 0.51072 2 0 ack 40 ------- 0 3.0 0.0 34 96
r 0.51176 0 2 tcp 1000 ------N 0 0.0 3.0 63 99
+ 0.51176 2 3 tcp 1000 ------N 0 0.0 3.0 63 99
r 0.51576 2 0 ack 40 ------- 0 3.0 0.0 34 96
+ 0.51576 0 2 tcp 1000 ------N 0 0.0 3.0 64 101
- 0.51576 0 2 tcp 1000 ------N 0 0.0 3.0 64 101
r 0.52032 2 3 tcp 1000 ------N 0 0.0 3.0 37 58
+ 0.52032 3 2 ack 40 ------- 0 3.0 0.0 37 102
- 0.52032 3 2 ack 40 ------- 0 3.0 0.0 37 102
- 0.52032 2 3 tcp 1000 ------N 0 0.0 3.0 40 62
r 0.52072 3 2 ack 40 ------- 0 3.0 0.0 35 98
+ 0.52072 2 0 ack 40 ------- 0 3.0 0.0 35 98
- 0.52072 2 0 ack 40 ------- 0 3.0 0.0 35 98
r 0.52176 0 2 tcp 1000 ------N 0 0.0 3.0 64 101
+ 0.52176 2 3 tcp 1000 ------N 0 0.0 3.0 64 101
r 0.52576 2 0 ack 40 ------- 0 3.0 0.0 35 98
+ 0.52576 0 2 tcp 1000 ------N 0 0.0 3.0 65 103
- 0.52576 0 2 tcp 1000 ------N 0 0.0 3.0 65 103
r 0.53032 2 3 tcp 1000 ------N 0 0.0 3.0 38 59
+ 0.53032 3 2 ack 40 ------- 0 3.0 0.0 38 104
- 0.53032 3 2 ack 40 ------- 0 3.0 0.0 38 104
- 0.53032 2 3 tcp 1000 ------N 0 0.0 3.0 41 64
r 0.53072 3 2 ack 40 ------- 0 3.0 0.0 36 100
+ 0.53072 2 0 ack 40 ------- 0 3.0 0.0 36 100
- 0.53072 2 0 ack 40 ------- 0 3.0 0.0 36 100
r 0.53176 0 2 tcp 1000 ------N 0 0.0 3.0 65 103
+ 0.53176 2 3 tcp 1000 ------N 0 0.0 3.0 65 103
r 0.53576 2 0 ack 40 ------- 0 3.0 0.0 36 100
+ 0.53576 0 2 tcp 1000 ------N 0 0.0 3.0 66 105
- 0.53576 0 2 tcp 1000 ------N 0 0.0 3.0 66 105
r 0.54032 2 3 tcp 1000 ------N 0 0.0 3.0 39 61
+ 0.54032 3 2 ack 40 ------- 0 3.0 0.0 39 106
- 0.54032 3 2 ack 40 ------- 0 3.0 0.0 39 106
- 0.54032 2 3 tcp 1000 ------N 0 0.0 3.0 42 65
r 0.54072 3 2 ack 40 ------- 0 3.0 0.0 37 102
+ 0.54072 2 0 ack 40 ------- 0 3.0 0.0 37 102
- 0.54072 2 0 ack 40 ------- 0 3.0 0.0 37 102
r 0.54176 0 2 tcp 1000 ------N 0 0.0 3.0 66 105
+ 0.54176 2 3 tcp 1000 ------N 0 0.0 3.0 66 105
r 0.54576 2 0 ack 40 ------- 0 3.0 0.0 37 102
+ 0.54576 0 2 tcp 1000 ------N 0 0.0 3.0 67 107
- 0.54576 0 2 tcp 1000 ------N 0 0.0 3.0 67 107
r 0.55032 2 3 tcp 1000 ------N 0 0.0 3.0 40 62
+ 0.55032 3 2 ack 40 ------- 0 3.0 0.0 40 108
- 0.55032 3 2 ack 40 ------- 0 3.0 0.0 40 108
- 0.55032 2 3 tcp 1000 ------N 0 0.0 3.0 43 67
r 0.55072 3 2 ack 40 ------- 0 3.0 0.0 38 104
+ 0.55072 2 0 ack 40 ------- 0 3.0 0.0 38 104
- 0.55072 2 0 ack 40 ------- 0 3.0 0.0 38 104
r 0.55176 0 2 tcp 1000 ------N 0 0.0 3.0 67 107
+ 0.55176 2 3 tcp 1000 ------N 0 0.0 3.0 67 107
r 0.55576 2 0 ack 40 ------- 0 3.0 0.0 38 104
+ 0.55576 0 2 tcp 1000 ------N 0 0.0 3.0 68 109
- 0.55576 0 2 tcp 1000 ------N 0 0.0 3.0 68 109
r 0.56032 2 3 tcp 1000 ------N 0 0.0 3.0 41 64
+ 0.56032 3 2 ack 40 ------- 0 3.0 0.0 41 110
- 0.56032 3 2 ack 40 ------- 0 3.0 0.0 41 110
- 0.56032 2 3 tcp 1000 ------N 0 0.0 3.0 44 68
r 0.56072 3 2 ack 40 ------- 0 3.0 0.0 39 106
+ 0.56072 2 0 ack 40 ------- 0 3.0 0.0 39 106
- 0.56072 2 0 ack 40 ------- 0 3.0 0.0 39 106
r 0.56176 0 2 tcp 1000 ------N 0 0.0 3.0 68 109
+ 0.56176 2 3 tcp 1000 ------N 0 0.0 3.0 68 109
r 0.56576 2 0 ack 40 ------- 0 3.0 0.0 39 106
+ 0.56576 0 2 tcp 1000 ------N 0 0.0 3.0 69 111
- 0.56576 0 2 tcp 1000 ------N 0 0.0 3.0 69 111
r 0.57032 2 3 tcp 1000 ------N 0 0.0 3.0 42 65
+ 0.57032 3 2 ack 40 ------- 0 3.0 0.0 42 112
- 0.57032 3 2 ack 40 ------- 0 3.0 0.0 42 112
- 0.57032 2 3 tcp 1000 ------N 0 0.0 3.0 45 70
r 0.57072 3 2 ack 40 ------- 0 3.0 0.0 40 108
+ 0.57072 2 0 ack 40 ------- 0 3.0 0.0 40 108
- 0.57072 2 0 ack 40 ------- 0 3.0 0.0 40 108
r 0.57176 0 2 tcp 1000 ------N 0 0.0 3.0 69 111
+ 0.57176 2 3 tcp 1000 ------N 0 0.0 3.0 69 111
r 0.57576 2 0 ack 40 ------- 0 3.0 0.0 40 108
+ 0.57576 0 2 tcp 1000 ------N 0 0.0 3.0 70 113
- 0.57576 0 2 tcp 1000 ------N 0 0.0 3.0 70 113
r 0.58032 2 3 tcp 1000 ------N 0 0.0 3.0 43 67
+ 0.58032 3 2 ack 40 ------- 0 3.0 0.0 43 114
- 0.58032 3 2 ack 40 ------- 0 3.0 0.0 43 114
- 0.58032 2 3 tcp 1000 ------N 0 0.0 3.0 46 71
r 0.58072 3 2 ack 40 ------- 0 3.0 0.0 41 110
+ 0.58072 2 0 ack 40 ------- 0 3.0 0.0 41 110
- 0.58072 2 0 ack 40 ------- 0 3.0 0.0 41 110
r 0.58176 0 2 tcp 1000 ------N 0 0.0 3.0 70 113
+ 0.58176 2 3 tcp 1000 ------N 0 0.0 3.0 70 113
r 0.58576 2 0 ack 40 ------- 0 3.0 0.0 41 110
+ 0.58576 0 2 tcp 1000 ------N 0 0.0 3.0 71 115
- 0.58576 0 2 tcp 1000 ------N 0 0.0 3.0 71 115
r 0.59032 2 3 tcp 1000 ------N 0 0.0 3.0 44 68
+ 0.59032 3 2 ack 40 ------- 0 3.0 0.0 44 116
- 0.59032 3 2 ack 40 ------- 0 3.0 0.0 44 116
- 0.59032 2 3 tcp 1000 ------N 0 0.0 3.0 47 73
r 0.59072 3 2 ack 40 ------- 0 3.0 0.0 42 112
+ 0.59072 2 0 ack 40 ------- 0 3.0 0.0 42 112
- 0.59072 2 0 ack 40 ------- 0 3.0 0.0 42 112
r 0.59176 0 2 tcp 1000 ------N 0 0.0 3.0 71 115
+ 0.59176 2 3 tcp 1000 ------N 0 0.0 3.0 71 115
r 0.59576 2 0 ack 40 ------- 0 3.0 0.0 42 112
+ 0.59576 0 2 tcp 1000 ------N 0 0.0 3.0 72 117
- 0.59576 0 2 tcp 1000 ------N 0 0.0 3.0 72 117
r 0.60032 2 3 tcp 1000 ------N 0 0.0 3.0 45 70
+ 0.60032 3 2 ack 40 ------- 0 3.0 0.0 45 118
- 0.60032 3 2 ack 40 ------- 0 3.0 0.0 45 118
- 0.60032 2 3 tcp 1000 ------N 0 0.0 3.0 48 74
r 0.60072 3 2 ack 40 ------- 0 3.0 0.0 43 114
+ 0.60072 2 0 ack 40 ------- 0 3.0 0.0 43 114
- 0.60072 2 0 ack 40 ------- 0 3.0 0.0 43 114