V -t * -v 1.0a5 -a 0
A -t * -n 1 -p 0 -o 0x7fffffff -c 30 -a 1
A -t * -h 1 -m 1073741823 -s 0
n -t * -a 0 -s 0 -S UP -v circle -c black -i black
n -t * -a 1 -s 1 -S UP -v circle -c black -i black
n -t * -a 2 -s 2 -S UP -v circle -c black -i black
n -t * -a 3 -s 3 -S UP -v circle -c black -i black
l -t * -s 0 -d 2 -S UP -r 8000000 -D 0.0050000000000000001 -c black
l -t * -s 1 -d 2 -S UP -r 8000000 -D 0.0050000000000000001 -c black
l -t * -s 2 -d 3 -S UP -r 800000 -D 0.02 -c black
+ -t 0 -s 0 -d 2 -p tcp -e 1000 -c 0 -i 0 -a 0 -x {0.0 3.0 0 C------ null}
- -t 0 -s 0 -d 2 -p tcp -e 1000 -c 0 -i 0 -a 0 -x {0.0 3.0 0 C------ null}
h -t 0 -s 0 -d 2 -p tcp -e 1000 -c 0 -i 0 -a 0 -x {0.0 3.0 -1 C------ null}
r -t 0.006 -s 0 -d 2 -p tcp -e 1000 -c 0 -i 0 -a 0 -x {0.0 3.0 0 C------ null}
+ -t 0.006 -s 2 -d 3 -p tcp -e 1000 -c 0 -i 0 -a 0 -x {0.0 3.0 0 C------ null}
- -t 0.006 -s 2 -d 3 -p tcp -e 1000 -c 0 -i 0 -a 0 -x {0.0 3.0 0 C------ null}
h -t 0.006 -s 2 -d 3 -p tcp -e 1000 -c 0 -i 0 -a 0 -x {0.0 3.0 -1 C------ null}
r -t 0.036 -s 2 -d 3 -p tcp -e 1000 -c 0 -i 0 -a 0 -x {0.0 3.0 0 C------ null}
+ -t 0.036 -s 3 -d 2 -p ack -e 40 -c 0 -i 1 -a 0 -x {3.0 0.0 0 C------ null}
- -t 0.036 -s 3 -d 2 -p ack -e 40 -c 0 -i 1 -a 0 -x {3.0 0.0 0 C------ null}
h -t 0.036 -s 3 -d 2 -p ack -e 40 -c 0 -i 1 -a 0 -x {3.0 0.0 -1 C------ null}
r -t 0.0564 -s 3 -d 2 -p ack -e 40 -c 0 -i 1 -a 0 -x {3.0 0.0 0 C------ null}
+ -t 0.0564 -s 2 -d 0 -p ack -e 40 -c 0 -i 1 -a 0 -x {3.0 0.0 0 C------ null}
- -t 0.0564 -s 2 -d 0 -p ack -e 40 -c 0 -i 1 -a 0 -x {3.0 0.0 0 C------ null}
h -t 0.0564 -s 2 -d 0 -p ack -e 40 -c 0 -i 1 -a 0 -x {3.0 0.0 -1 C------ null}
r -t 0.06144 -s 2 -d 0 -p ack -e 40 -c 0 -i 1 -a 0 -x {3.0 0.0 0 C------ null}
+ -t 0.06144 -s 0 -d 2 -p tcp -e 1000 -c 0 -i 2 -a 0 -x {0.0 3.0 1 ------N null}
- -t 0.06144 -s 0 -d 2 -p tcp -e 1000 -c 0 -i 2 -a 0 -x {0.0 3.0 1 ------N null}
h -t 0.06144 -s 0 -d 2 -p tcp -e 1000 -c 0 -i 2 -a 0 -x {0.0 3.0 -1 ------N null}
+ -t 0.06144 -s 0 -d 2 -p tcp -e 1000 -c 0 -i 3 -a 0 -x {0.0 3.0 2 ------N null}
- -t 0.06244 -s 0 -d 2 -p tcp -e 1000 -c 0 -i 3 -a 0 -x {0.0 3.0 2 ------N null}
h -t 0.06244 -s 0 -d 2 -p tcp -e 1000 -c 0 -i 3 -a 0 -x {0.0 3.0 -1 ------N null}
r -t 0.06744 -s 0 -d 2 -p tcp -e 1000 -c 0 -i 2 -a 0 -x {0.0 3.0 1 ------N null}
+ -t 0.06744 -s 2 -d 3 -p tcp -e 1000 -c 0 -i 2 -a 0 -x {0.0 3.0 1 ------N null}
- -t 0.06744 -s 2 -d 3 -p tcp -e 1000 -c 0 -i 2 -a 0 -x {0.0 3.0 1 ------N null}
h -t 0.06744 -s 2 -d 3 -p tcp -e 1000 -c 0 -i 2 -a 0 -x {0.0 3.0 -1 ------N null}
r -t 0.06844 -s 0 -d 2 -p tcp -e 1000 -c 0 -i 3 -a 0 -x {0.0 3.0 2 ------N null}
+ -t 0.06844 -s 2 -d 3 -p tcp -e 1000 -c 0 -i 3 -a 0 -x {0.0 3.0 2 ------N null}
- -t 0.07744 -s 2 -d 3 -p tcp -e 1000 -c 0 -i 3 -a 0 -x {0.0 3.0 2 ------N null}
h -t 0.07744 -s 2 -d 3 -p tcp -e 1000 -c 0 -i 3 -a 0 -x {0.0 3.0 -1 ------N null}
r -t 0.09744 -s 2 -d 3 -p tcp -e 1000 -c 0 -i 2 -a 0 -x {0.0 3.0 1 ------N null}
+ -t 0.09744 -s 3 -d 2 -p ack -e 40 -c 0 -i 4 -a 0 -x {3.0 0.0 1 ------- null}
- -t 0.09744 -s 3 -d 2 -p ack -e 40 -c 0 -i 4 -a 0 -x {3.0 0.0 1 ------- null}
h -t 0.09744 -s 3 -d 2 -p ack -e 40 -c 0 -i 4 -a 0 -x {3.0 0.0 -1 ------- null}
r -t 0.10744 -s 2 -d 3 -p tcp -e 1000 -c 0 -i 3 -a 0 -x {0.0 3.0 2 ------N null}
+ -t 0.10744 -s 3 -d 2 -p ack -e 40 -c 0 -i 5 -a 0 -x {3.0 0.0 2 ------- null}
- -t 0.10744 -s 3 -d 2 -p ack -e 40 -c 0 -i 5 -a 0 -x {3.0 0.0 2 ------- null}
h -t 0.10744 -s 3 -d 2 -p ack -e 40 -c 0 -i 5 -a 0 -x {3.0 0.0 -1 ------- null}
r -t 0.11784 -s 3 -d 2 -p ack -e 40 -c 0 -i 4 -a 0 -x {3.0 0.0 1 ------- null}
+ -t 0.11784 -s 2 -d 0 -p ack -e 40 -c 0 -i 4 -a 0 -x {3.0 0.0 1 ------- null}
- -t 0.11784 -s 2 -d 0 -p ack -e 40 -c 0 -i 4 -a 0 -x {3.0 0.0 1 ------- null}
h -t 0.11784 -s 2 -d 0 -p ack -e 40 -c 0 -i 4 -a 0 -x {3.0 0.0 -1 ------- null}
r -t 0.12288 -s 2 -d 0 -p ack -e 40 -c 0 -i 4 -a 0 -x {3.0 0.0 1 ------- null}
+ -t 0.12288 -s 0 -d 2 -p tcp -e 1000 -c 0 -i 6 -a 0 -x {0.0 3.0 3 ------N null}
- -t 0.12288 -s 0 -d 2 -p tcp -e 1000 -c 0 -i 6 -a 0 -x {0.0 3.0 3 ------N null}
h -t 0.12288 -s 0 -d 2 -p tcp -e 1000 -c 0 -i 6 -a 0 -x {0.0 3.0 -1 ------N null}
+ -t 0.12288 -s 0 -d 2 -p tcp -e 1000 -c 0 -i 7 -a 0 -x {0.0 3.0 4 ------N null}
- -t 0.12388 -s 0 -d 2 -p tcp -e 1000 -c 0 -i 7 -a 0 -x {0.0 3.0 4 ------N null}
h -t 0.12388 -s 0 -d 2 -p tcp -e 1000 -c 0 -i 7 -a 0 -x {0.0 3.0 -1 ------N null}
r -t 0.12784 -s 3 -d 2 -p ack -e 40 -c 0 -i 5 -a 0 -x {3.0 0.0 2 ------- null}
+ -t 0.12784 -s 2 -d 0 -p ack -e 40 -c 0 -i 5 -a 0 -x {3.0 0.0 2 ------- null}
- -t 0.12784 -s 2 -d 0 -p ack -e 40 -c 0 -i 5 -a 0 -x {3.0 0.0 2 ------- null}
h -t 0.12784 -s 2 -d 0 -p ack -e 40 -c 0 -i 5 -a 0 -x {3.0 0.0 -1 ------- null}
r -t 0.12888 -s 0 -d 2 -p tcp -e 1000 -c 0 -i 6 -a 0 -x {0.0 3.0 3 ------N null}
+ -t 0.12888 -s 2 -d 3 -p tcp -e 1000 -c 0 -i 6 -a 0 -x {0.0 3.0 3 ------N null}
- -t 0.12888 -s 2 -d 3 -p tcp -e 1000 -c 0 -i 6 -a 0 -x {0.0 3.0 3 ------N null}
h -t 0.12888 -s 2 -d 3 -p tcp -e 1000 -c 0 -i 6 -a 0 -x {0.0 3.0 -1 ------N null}
r -t 0.12988 -s 0 -d 2 -p tcp -e 1000 -c 0 -i 7 -a 0 -x {0.0 3.0 4 ------N null}
+ -t 0.12988 -s 2 -d 3 -p tcp -e 1000 -c 0 -i 7 -a 0 -x {0.0 3.0 4 ------N null}
r -t 0.13288 -s 2 -d 0 -p ack -e 40 -c 0 -i 5 -a 0 -x {3.0 0.0 2 ------- null}
+ -t 0.13288 -s 0 -d 2 -p tcp -e 1000 -c 0 -i 8 -a 0 -x {0.0 3.0 5 ------N null}
- -t 0.13288 -s 0 -d 2 -p tcp -e 1000 -c 0 -i 8 -a 0 -x {0.0 3.0 5 ------N null}
h -t 0.13288 -s 0 -d 2 -p tcp -e 1000 -c 0 -i 8 -a 0 -x {0.0 3.0 -1 ------N null}
+ -t 0.13288 -s 0 -d 2 -p tcp -e 1000 -c 0 -i 9 -a 0 -x {0.0 3.0 6 ------N null}
- -t 0.13388 -s 0 -d 2 -p tcp -e 1000 -c 0 -i 9 -a 0 -x {0.0 3.0 6 ------N null}
h -t 0.13388 -s 0 -d 2 -p tcp -e 1000 -c 0 -i 9 -a 0 -x {0.0 3.0 -1 ------N null}
- -t 0.13888 -s 2 -d 3 -p tcp -e 1000 -c 0 -i 7 -a 0 -x {0.0 3.0 4 ------N null}
h -t 0.13888 -s 2 -d 3 -p tcp -e 1000 -c 0 -i 7 -a 0 -x {0.0 3.0 -1 ------N null}
r -t 0.13888 -s 0 -d 2 -p tcp -e 1000 -c 0 -i 8 -a 0 -x {0.0 3.0 5 ------N null}
+ -t 0.13888 -s 2 -d 3 -p tcp -e 1000 -c 0 -i 8 -a 0 -x {0.0 3.0 5 ------N null}
r -t 0.13988 -s 0 -d 2 -p tcp -e 1000 -c 0 -i 9 -a 0 -x {0.0 3.0 6 ------N null}
+ -t 0.13988 -s 2 -d 3 -p tcp -e 1000 -c 0 -i 9 -a 0 -x {0.0 3.0 6 ------N null}
- -t 0.14888 -s 2 -d 3 -p tcp -e 1000 -c 0 -i 8 -a 0 -x {0.0 3.0 5 ------N null}
h -t 0.14888 -s 2 -d 3 -p tcp -e 1000 -c 0 -i 8 -a 0 -x {0.0 3.0 -1 ------N null}
r -t 0.15888 -s 2 -d 3 -p tcp -e 1000 -c 0 -i 6 -a 0 -x {0.0 3.0 3 ------N null}
+ -t 0.15888 -s 3 -d 2 -p ack -e 40 -c 0 -i 10 -a 0 -x {3.0 0.0 3 ------- null}
- -t 0.15888 -s 3 -d 2 -p ack -e 40 -c 0 -i 10 -a 0 -x {3.0 0.0 3 ------- null}
h -t 0.15888 -s 3 -d 2 -p ack -e 40 -c 0 -i 10 -a 0 -x {3.0 0.0 -1 ------- null}
- -t 0.15888 -s 2 -d 3 -p tcp -e 1000 -c 0 -i 9 -a 0 -x {0.0 3.0 6 ------N null}
h -t 0.15888 -s 2 -d 3 -p tcp -e 1000 -c 0 -i 9 -a 0 -x {0.0 3.0 -1 ------N null}
r -t 0.16888 -s 2 -d 3 -p tcp -e 1000 -c 0 -i 7 -a 0 -x {0.0 3.0 4 ------N null}
+ -t 0.16888 -s 3 -d 2 -p ack -e 40 -c 0 -i 11 -a 0 -x {3.0 0.0 4 ------- null}
- -t 0.16888 -s 3 -d 2 -p ack -e 40 -c 0 -i 11 -a 0 -x {3.0 0.0 4 ------- null}
h -t 0.16888 -s 3 -d 2 -p ack -e 40 -c 0 -i 11 -a 0 -x {3.0 0.0 -1 ------- null}
r -t 0.17888 -s 2 -d 3 -p tcp -e 1000 -c 0 -i 8 -a 0 -x {0.0 3.0 5 ------N null}
+ -t 0.17888 -s 3 -d 2 -p ack -e 40 -c 0 -i 12 -a 0 -x {3.0 0.0 5 ------- null}
- -t 0.17888 -s 3 -d 2 -p ack -e 40 -c 0 -i 12 -a 0 -x {3.0 0.0 5 ------- null}
h -t 0.17888 -s 3 -d 2 -p ack -e 40 -c 0 -i 12 -a 0 -x {3.0 0.0 -1 ------- null}
r -t 0.17928 -s 3 -d 2 -p ack -e 40 -c 0 -i 10 -a 0 -x {3.0 0.0 3 ------- null}
+ -t 0.17928 -s 2 -d 0 -p ack -e 40 -c 0 -i 10 -a 0 -x {3.0 0.0 3 ------- null}
- -t 0.17928 -s 2 -d 0 -p ack -e 40 -c 0 -i 10 -a 0 -x {3.0 0.0 3 ------- null}
h -t 0.17928 -s 2 -d 0 -p ack -e 40 -c 0 -i 10 -a 0 -x {3.0 0.0 -1 ------- null}
r -t 0.18432 -s 2 -d 0 -p ack -e 40 -c 0 -i 10 -a 0 -x {3.0 0.0 3 ------- null}
+ -t 0.18432 -s 0 -d 2 -p tcp -e 1000 -c 0 -i 13 -a 0 -x {0.0 3.0 7 ------N null}
- -t 0.18432 -s 0 -d 2 -p tcp -e 1000 -c 0 -i 13 -a 0 -x {0.0 3.0 7 ------N null}
h -t 0.18432 -s 0 -d 2 -p tcp -e 1000 -c 0 -i 13 -a 0 -x {0.0 3.0 -1 ------N null}
+ -t 0.18432 -s 0 -d 2 -p tcp -e 1000 -c 0 -i 14 -a 0 -x {0.0 3.0 8 ------N null}
- -t 0.18532 -s 0 -d 2 -p tcp -e 1000 -c 0 -i 14 -a 0 -x {0.0 3.0 8 ------N null}
h -t 0.18532 -s 0 -d 2 -p tcp -e 1000 -c 0 -i 14 -a 0 -x {0.0 3.0 -1 ------N null}
r -t 0.18888 -s 2 -d 3 -p tcp -e 1000 -c 0 -i 9 -a 0 -x {0.0 3.0 6 ------N null}
+ -t 0.18888 -s 3 -d 2 -p ack -e 40 -c 0 -i 15 -a 0 -x {3.0 0.0 6 ------- null}
- -t 0.18888 -s 3 -d 2 -p ack -e 40 -c 0 -i 15 -a 0 -x {3.0 0.0 6 ------- null}
h -t 0.18888 -s 3 -d 2 -p ack -e 40 -c 0 -i 15 -a 0 -x {3.0 0.0 -1 ------- null}
r -t 0.18928 -s 3 -d 2 -p ack -e 40 -c 0 -i 11 -a 0 -x {3.0 0.0 4 ------- null}
+ -t 0.18928 -s 2 -d 0 -p ack -e 40 -c 0 -i 11 -a 0 -x {3.0 0.0 4 ------- null}
- -t 0.18928 -s 2 -d 0 -p ack -e 40 -c 0 -i 11 -a 0 -x {3.0 0.0 4 ------- null}
h -t 0.18928 -s 2 -d 0 -p ack -e 40 -c 0 -i 11 -a 0 -x {3.0 0.0 -1 ------- null}
r -t 0.19032 -s 0 -d 2 -p tcp -e 1000 -c 0 -i 13 -a 0 -x {0.0 3.0 7 ------N null}
+ -t 0.19032 -s 2 -d 3 -p tcp -e 1000 -c 0 -i 13 -a 0 -x {0.0 3.0 7 ------N null}
- -t 0.19032 -s 2 -d 3 -p tcp -e 1000 -c 0 -i 13 -a 0 -x {0.0 3.0 7 ------N null}
h -t 0.19032 -s 2 -d 3 -p tcp -e 1000 -c 0 -i 13 -a 0 -x {0.0 3.0 -1 ------N null}
r -t 0.19132 -s 0 -d 2 -p tcp -e 1000 -c 0 -i 14 -a 0 -x {0.0 3.0 8 ------N null}
+ -t 0.19132 -s 2 -d 3 -p tcp -e 1000 -c 0 -i 14 -a 0 -x {0.0 3.0 8 ------N null}
r -t 0.19432 -s 2 -d 0 -p ack -e 40 -c 0 -i 11 -a 0 -x {3.0 0.0 4 ------- null}
+ -t 0.19432 -s 0 -d 2 -p tcp -e 1000 -c 0 -i 16 -a 0 -x {0.0 3.0 9 ------N null}
- -t 0.19432 -s 0 -d 2 -p tcp -e 1000 -c 0 -i 16 -a 0 -x {0.0 3.0 9 ------N null}
h -t 0.19432 -s 0 -d 2 -p tcp -e 1000 -c 0 -i 16 -a 0 -x {0.0 3.0 -1 ------N null}
+ -t 0.19432 -s 0 -d 2 -p tcp -e 1000 -c 0 -i 17 -a 0 -x {0.0 3.0 10 ------N null}
- -t 0.19532 -s 0 -d 2 -p tcp -e 1000 -c 0 -i 17 -a 0 -x {0.0 3.0 10 ------N null}
h -t 0.19532 -s 0 -d 2 -p tcp -e 1000 -c 0 -i 17 -a 0 -x {0.0 3.0 -1 ------N null}
r -t 0.19928 -s 3 -d 2 -p ack -e 40 -c 0 -i 12 -a 0 -x {3.0 0.0 5 ------- null}
+ -t 0.19928 -s 2 -d 0 -p ack -e 40 -c 0 -i 12 -a 0 -x {3.0 0.0 5 ------- null}
- -t 0.19928 -s 2 -d 0 -p ack -e 40 -c 0 -i 12 -a 0 -x {3.0 0.0 5 ------- null}
h -t 0.19928 -s 2 -d 0 -p ack -e 40 -c 0 -i 12 -a 0 -x {3.0 0.0 -1 ------- null}
- -t 0.20032 -s 2 -d 3 -p tcp -e 1000 -c 0 -i 14 -a 0 -x {0.0 3.0 8 ------N null}
h -t 0.20032 -s 2 -d 3 -p tcp -e 1000 -c 0 -i 14 -a 0 -x {0.0 3.0 -1 ------N null}
r -t 0.20032 -s 0 -d 2 -p tcp -e 1000 -c 0 -i 16 -a 0 -x {0.0 3.0 9 ------N null}
+ -t 0.20032 -s 2 -d 3 -p tcp -e 1000 -c 0 -i 16 -a 0 -x {0.0 3.0 9 ------N null}
r -t 0.20132 -s 0 -d 2 -p tcp -e 1000 -c 0 -i 17 -a 0 -x {0.0 3.0 10 ------N null}
+ -t 0.20132 -s 2 -d 3 -p tcp -e 1000 -c 0 -i 17 -a 0 -x {0.0 3.0 10 ------N null}
r -t 0.20432 -s 2 -d 0 -p ack -e 40 -c 0 -i 12 -a 0 -x {3.0 0.0 5 ------- null}
+ -t 0.20432 -s 0 -d 2 -p tcp -e 1000 -c 0 -i 18 -a 0 -x {0.0 3.0 11 ------N null}
- -t 0.20432 -s 0 -d 2 -p tcp -e 1000 -c 0 -i 18 -a 0 -x {0.0 3.0 11 ------N null}
h -t 0.20432 -s 0 -d 2 -p tcp -e 1000 -c 0 -i 18 -a 0 -x {0.0 3.0 -1 ------N null}
+ -t 0.20432 -s 0 -d 2 -p tcp -e 1000 -c 0 -i 19 -a 0 -x {0.0 3.0 12 ------N null}
- -t 0.20532 -s 0 -d 2 -p tcp -e 1000 -c 0 -i 19 -a 0 -x {0.0 3.0 12 ------N null}
h -t 0.20532 -s 0 -d 2 -p tcp -e 1000 -c 0 -i 19 -a 0 -x {0.0 3.0 -1 ------N null}
r -t 0.20928 -s 3 -d 2 -p ack -e 40 -c 0 -i 15 -a 0 -x {3.0 0.0 6 ------- null}
+ -t 0.20928 -s 2 -d 0 -p ack -e 40 -c 0 -i 15 -a 0 -x {3.0 0.0 6 ------- null}
- -t 0.20928 -s 2 -d 0 -p ack -e 40 -c 0 -i 15 -a 0 -x {3.0 0.0 6 ------- null}
h -t 0.20928 -s 2 -d 0 -p ack -e 40 -c 0 -i 15 -a 0 -x {3.0 0.0 -1 ------- null}
- -t 0.21032 -s 2 -d 3 -p tcp -e 1000 -c 0 -i 16 -a 0 -x {0.0 3.0 9 ------N null}
h -t 0.21032 -s 2 -d 3 -p tcp -e 1000 -c 0 -i 16 -a 0 -x {0.0 3.0 -1 ------N null}
r -t 0.21032 -s 0 -d 2 -p tcp -e 1000 -c 0 -i 18 -a 0 -x {0.0 3.0 11 ------N null}
+ -t 0.21032 -s 2 -d 3 -p tcp -e 1000 -c 0 -i 18 -a 0 -x {0.0 3.0 11 ------N null}
r -t 0.21132 -s 0 -d 2 -p tcp -e 1000 -c 0 -i 19 -a 0 -x {0.0 3.0 12 ------N null}
+ -t 0.21132 -s 2 -d 3 -p tcp -e 1000 -c 0 -i 19 -a 0 -x {0.0 3.0 12 ------N null}
r -t 0.21432 -s 2 -d 0 -p ack -e 40 -c 0 -i 15 -a 0 -x {3.0 0.0 6 ------- null}
+ -t 0.21432 -s 0 -d 2 -p tcp -e 1000 -c 0 -i 20 -a 0 -x {0.0 3.0 13 ------N null}
- -t 0.21432 -s 0 -d 2 -p tcp -e 1000 -c 0 -i 20 -a 0 -x {0.0 3.0 13 ------N null}
h -t 0.21432 -s 0 -d 2 -p tcp -e 1000 -c 0 -i 20 -a 0 -x {0.0 3.0 -1 ------N null}
+ -t 0.21432 -s 0 -d 2 -p tcp -e 1000 -c 0 -i 21 -a 0 -x {0.0 3.0 14 ------N null}
- -t 0.21532 -s 0 -d 2 -p tcp -e 1000 -c 0 -i 21 -a 0 -x {0.0 3.0 14 ------N null}
h -t 0.21532 -s 0 -d 2 -p tcp -e 1000 -c 0 -i 21 -a 0 -x {0.0 3.0 -1 ------N null}
r -t 0.22032 -s 2 -d 3 -p tcp -e 1000 -c 0 -i 13 -a 0 -x {0.0 3.0 7 ------N null}
+ -t 0.22032 -s 3 -d 2 -p ack -e 40 -c 0 -i 22 -a 0 -x {3.0 0.0 7 ------- null}
- -t 0.22032 -s 3 -d 2 -p ack -e 40 -c 0 -i 22 -a 0 -x {3.0 0.0 7 ------- null}
h -t 0.22032 -s 3 -d 2 -p ack -e 40 -c 0 -i 22 -a 0 -x {3.0 0.0 -1 ------- null}
- -t 0.22032 -s 2 -d 3 -p tcp -e 1000 -c 0 -i 17 -a 0 -x {0.0 3.0 10 ------N null}
h -t 0.22032 -s 2 -d 3 -p tcp -e 1000 -c 0 -i 17 -a 0 -x {0.0 3.0 -1 ------N null}
r -t 0.22032 -s 0 -d 2 -p tcp -e 1000 -c 0 -i 20 -a 0 -x {0.0 3.0 13 ------N null}
+ -t 0.22032 -s 2 -d 3 -p tcp -e 1000 -c 0 -i 20 -a 0 -x {0.0 3.0 13 ------N null}
r -t 0.22132 -s 0 -d 2 -p tcp -e 1000 -c 0 -i 21 -a 0 -x {0.0 3.0 14 ------N null}
+ -t 0.22132 -s 2 -d 3 -p tcp -e 1000 -c 0 -i 21 -a 0 -x {0.0 3.0 14 ------N null}
r -t 0.23032 -s 2 -d 3 -p tcp -e 1000 -c 0 -i 14 -a 0 -x {0.0 3.0 8 ------N null}
+ -t 0.23032 -s 3 -d 2 -p ack -e 40 -c 0 -i 23 -a 0 -x {3.0 0.0 8 ------- null}
- -t 0.23032 -s 3 -d 2 -p ack -e 40 -c 0 -i 23 -a 0 -x {3.0 0.0 8 ------- null}
h -t 0.23032 -s 3 -d 2 -p ack -e 40 -c 0 -i 23 -a 0 -x {3.0 0.0 -1 ------- null}
- -t 0.23032 -s 2 -d 3 -p tcp -e 1000 -c 0 -i 18 -a 0 -x {0.0 3.0 11 ------N null}
h -t 0.23032 -s 2 -d 3 -p tcp -e 1000 -c 0 -i 18 -a 0 -x {0.0 3.0 -1 ------N null}
r -t 0.24032 -s 2 -d 3 -p tcp -e 1000 -c 0 -i 16 -a 0 -x {0.0 3.0 9 ------N null}
+ -t 0.24032 -s 3 -d 2 -p ack -e 40 -c 0 -i 24 -a 0 -x {3.0 0.0 9 ------- null}
- -t 0.24032 -s 3 -d 2 -p ack -e 40 -c 0 -i 24 -a 0 -x {3.0 0.0 9 ------- null}
h -t 0.24032 -s 3 -d 2 -p ack -e 40 -c 0 -i 24 -a 0 -x {3.0 0.0 -1 ------- null}
- -t 0.24032 -s 2 -d 3 -p tcp -e 1000 -c 0 -i 19 -a 0 -x {0.0 3.0 12 ------N null}
h -t 0.24032 -s 2 -d 3 -p tcp -e 1000 -c 0 -i 19 -a 0 -x {0.0 3.0 -1 ------N null}
r -t 0.24072 -s 3 -d 2 -p ack -e 40 -c 0 -i 22 -a 0 -x {3.0 0.0 7 ------- null}
+ -t 0.24072 -s 2 -d 0 -p ack -e 40 -c 0 -i 22 -a 0 -x {3.0 0.0 7 ------- null}
- -t 0.24072 -s 2 -d 0 -p ack -e 40 -c 0 -i 22 -a 0 -x {3.0 0.0 7 ------- null}
h -t 0.24072 -s 2 -d 0 -p ack -e 40 -c 0 -i 22 -a 0 -x {3.0 0.0 -1 ------- null}
r -t 0.24576 -s 2 -d 0 -p ack -e 40 -c 0 -i 22 -a 0 -x {3.0 0.0 7 ------- null}
+ -t 0.24576 -s 0 -d 2 -p tcp -e 1000 -c 0 -i 25 -a 0 -x {0.0 3.0 15 ------N null}
- -t 0.24576 -s 0 -d 2 -p tcp -e 1000 -c 0 -i 25 -a 0 -x {0.0 3.0 15 ------N null}
h -t 0.24576 -s 0 -d 2 -p tcp -e 1000 -c 0 -i 25 -a 0 -x {0.0 3.0 -1 ------N null}
+ -t 0.24576 -s 0 -d 2 -p tcp -e 1000 -c 0 -i 26 -a 0 -x {0.0 3.0 16 ------N null}
- -t 0.24676 -s 0 -d 2 -p tcp -e 1000 -c 0 -i 26 -a 0 -x {0.0 3.0 16 ------N null}
h -t 0.24676 -s 0 -d 2 -p tcp -e 1000 -c 0 -i 26 -a 0 -x {0.0 3.0 -1 ------N null}
r -t 0.25032 -s 2 -d 3 -p tcp -e 1000 -c 0 -i 17 -a 0 -x {0.0 3.0 10 ------N null}
+ -t 0.25032 -s 3 -d 2 -p ack -e 40 -c 0 -i 27 -a 0 -x {3.0 0.0 10 ------- null}
- -t 0.25032 -s 3 -d 2 -p ack -e 40 -c 0 -i 27 -a 0 -x {3.0 0.0 10 ------- null}
h -t 0.25032 -s 3 -d 2 -p ack -e 40 -c 0 -i 27 -a 0 -x {3.0 0.0 -1 ------- null}
- -t 0.25032 -s 2 -d 3 -p tcp -e 1000 -c 0 -i 20 -a 0 -x {0.0 3.0 13 ------N null}
h -t 0.25032 -s 2 -d 3 -p tcp -e 1000 -c 0 -i 20 -a 0 -x {0.0 3.0 -1 ------N null}
r -t 0.25072 -s 3 -d 2 -p ack -e 40 -c 0 -i 23 -a 0 -x {3.0 0.0 8 ------- null}
+ -t 0.25072 -s 2 -d 0 -p ack -e 40 -c 0 -i 23 -a 0 -x {3.0 0.0 8 ------- null}
- -t 0.25072 -s 2 -d 0 -p ack -e 40 -c 0 -i 23 -a 0 -x {3.0 0.0 8 ------- null}
h -t 0.25072 -s 2 -d 0 -p ack -e 40 -c 0 -i 23 -a 0 -x {3.0 0.0 -1 ------- null}
r -t 0.25176 -s 0 -d 2 -p tcp -e 1000 -c 0 -i 25 -a 0 -x {0.0 3.0 15 ------N null}
+ -t 0.25176 -s 2 -d 3 -p tcp -e 1000 -c 0 -i 25 -a 0 -x {0.0 3.0 15 ------N null}
r -t 0.25276 -s 0 -d 2 -p tcp -e 1000 -c 0 -i 26 -a 0 -x {0.0 3.0 16 ------N null}
+ -t 0.25276 -s 2 -d 3 -p tcp -e 1000 -c 0 -i 26 -a 0 -x {0.0 3.0 16 ------N null}
r -t 0.25576 -s 2 -d 0 -p ack -e 40 -c 0 -i 23 -a 0 -x {3.0 0.0 8 ------- null}
+ -t 0.25576 -s 0 -d 2 -p tcp -e 1000 -c 0 -i 28 -a 0 -x {0.0 3.0 17 ------N null}
- -t 0.25576 -s 0 -d 2 -p tcp -e 1000 -c 0 -i 28 -a 0 -x {0.0 3.0 17 ------N null}
h -t 0.25576 -s 0 -d 2 -p tcp -e 1000 -c 0 -i 28 -a 0 -x {0.0 3.0 -1 ------N null}
+ -t 0.25576 -s 0 -d 2 -p tcp -e 1000 -c 0 -i 29 -a 0 -x {0.0 3.0 18 ------N null}
- -t 0.25676 -s 0 -d 2 -p tcp -e 1000 -c 0 -i 29 -a 0 -x {0.0 3.0 18 ------N null}
h -t 0.25676 -s 0 -d 2 -p tcp -e 1000 -c 0 -i 29 -a 0 -x {0.0 3.0 -1 ------N null}
r -t 0.26032 -s 2 -d 3 -p tcp -e 1000 -c 0 -i 18 -a 0 -x {0.0 3.0 11 ------N null}
+ -t 0.26032 -s 3 -d 2 -p ack -e 40 -c 0 -i 30 -a 0 -x {3.0 0.0 11 ------- null}
- -t 0.26032 -s 3 -d 2 -p ack -e 40 -c 0 -i 30 -a 0 -x {3.0 0.0 11 ------- null}
h -t 0.26032 -s 3 -d 2 -p ack -e 40 -c 0 -i 30 -a 0 -x {3.0 0.0 -1 ------- null}
- -t 0.26032 -s 2 -d 3 -p tcp -e 1000 -c 0 -i 21 -a 0 -x {0.0 3.0 14 ------N null}
h -t 0.26032 -s 2 -d 3 -p tcp -e 1000 -c 0 -i 21 -a 0 -x {0.0 3.0 -1 ------N null}
r -t 0.26072 -s 3 -d 2 -p ack -e 40 -c 0 -i 24 -a 0 -x {3.0 0.0 9 ------- null}
+ -t 0.26072 -s 2 -d 0 -p ack -e 40 -c 0 -i 24 -a 0 -x {3.0 0.0 9 ------- null}
- -t 0.26072 -s 2 -d 0 -p ack -e 40 -c 0 -i 24 -a 0 -x {3.0 0.0 9 ------- null}
h -t 0.26072 -s 2 -d 0 -p ack -e 40 -c 0 -i 24 -a 0 -x {3.0 0.0 -1 ------- null}
r -t 0.26176 -s 0 -d 2 -p tcp -e 1000 -c 0 -i 28 -a 0 -x {0.0 3.0 17 ------N null}
+ -t 0.26176 -s 2 -d 3 -p tcp -e 1000 -c 0 -i 28 -a 0 -x {0.0 3.0 17 ------N null}
r -t 0.26276 -s 0 -d 2 -p tcp -e 1000 -c 0 -i 29 -a 0 -x {0.0 3.0 18 ------N null}
+ -t 0.26276 -s 2 -d 3 -p tcp -e 1000 -c 0 -i 29 -a 0 -x {0.0 3.0 18 ------N null}
r -t 0.26576 -s 2 -d 0 -p ack -e 40 -c 0 -i 24 -a 0 -x {3.0 0.0 9 ------- null}
+ -t 0.26576 -s 0 -d 2 -p tcp -e 1000 -c 0 -i 31 -a 0 -x {0.0 3.0 19 ------N null}
- -t 0.26576 -s 0 -d 2 -p tcp -e 1000 -c 0 -i 31 -a 0 -x {0.0 3.0 19 ------N null}
h -t 0.26576 -s 0 -d 2 -p tcp -e 1000 -c 0 -i 31 -a 0 -x {0.0 3.0 -1 ------N null}
+ -t 0.26576 -s 0 -d 2 -p tcp -e 1000 -c 0 -i 32 -a 0 -x {0.0 3.0 20 ------N null}
- -t 0.26676 -s 0 -d 2 -p tcp -e 1000 -c 0 -i 32 -a 0 -x {0.0 3.0 20 ------N null}
h -t 0.26676 -s 0 -d 2 -p tcp -e 1000 -c 0 -i 32 -a 0 -x {0.0 3.0 -1 ------N null}
r -t 0.27032 -s 2 -d 3 -p tcp -e 1000 -c 0 -i 19 -a 0 -x {0.0 3.0 12 ------N null}
+ -t 0.27032 -s 3 -d 2 -p ack -e 40 -c 0 -i 33 -a 0 -x {3.0 0.0 12 ------- null}
- -t 0.27032 -s 3 -d 2 -p ack -e 40 -c 0 -i 33 -a 0 -x {3.0 0.0 12 ------- null}
h -t 0.27032 -s 3 -d 2 -p ack -e 40 -c 0 -i 33 -a 0 -x {3.0 0.0 -1 ------- null}
- -t 0.27032 -s 2 -d 3 -p tcp -e 1000 -c 0 -i 25 -a 0 -x {0.0 3.0 15 ------N null}
h -t 0.27032 -s 2 -d 3 -p tcp -e 1000 -c 0 -i 25 -a 0 -x {0.0 3.0 -1 ------N null}
r -t 0.27072 -s 3 -d 2 -p ack -e 40 -c 0 -i 27 -a 0 -x {3.0 0.0 10 ------- null}
+ -t 0.27072 -s 2 -d 0 -p ack -e 40 -c 0 -i 27 -a 0 -x {3.0 0.0 10 ------- null}
- -t 0.27072 -s 2 -d 0 -p ack -e 40 -c 0 -i 27 -a 0 -x {3.0 0.0 10 ------- null}
h -t 0.27072 -s 2 -d 0 -p ack -e 40 -c 0 -i 27 -a 0 -x {3.0 0.0 -1 ------- null}
r -t 0.27176 -s 0 -d 2 -p tcp -e 1000 -c 0 -i 31 -a 0 -x {0.0 3.0 19 ------N null}
+ -t 0.27176 -s 2 -d 3 -p tcp -e 1000 -c 0 -i 31 -a 0 -x {0.0 3.0 19 ------N null}
r -t 0.27276 -s 0 -d 2 -p tcp -e 1000 -c 0 -i 32 -a 0 -x {0.0 3.0 20 ------N null}
+ -t 0.27276 -s 2 -d 3 -p tcp -e 1000 -c 0 -i 32 -a 0 -x {0.0 3.0 20 ------N null}
r -t 0.27576 -s 2 -d 0 -p ack -e 40 -c 0 -i 27 -a 0 -x {3.0 0.0 10 ------- null}
+ -t 0.27576 -s 0 -d 2 -p tcp -e 1000 -c 0 -i 34 -a 0 -x {0.0 3.0 21 ------N null}
- -t 0.27576 -s 0 -d 2 -p tcp -e 1000 -c 0 -i 34 -a 0 -x {0.0 3.0 21 ------N null}
h -t 0.27576 -s 0 -d 2 -p tcp -e 1000 -c 0 -i 34 -a 0 -x {0.0 3.0 -1 ------N null}
+ -t 0.27576 -s 0 -d 2 -p tcp -e 1000 -c 0 -i 35 -a 0 -x {0.0 3.0 22 ------N null}
- -t 0.27676 -s 0 -d 2 -p tcp -e 1000 -c 0 -i 35 -a 0 -x {0.0 3.0 22 ------N null}
h -t 0.27676 -s 0 -d 2 -p tcp -e 1000 -c 0 -i 35 -a 0 -x {0.0 3.0 -1 ------N null}
r -t 0.28032 -s 2 -d 3 -p tcp -e 1000 -c 0 -i 20 -a 0 -x {0.0 3.0 13 ------N null}
+ -t 0.28032 -s 3 -d 2 -p ack -e 40 -c 0 -i 36 -a 0 -x {3.0 0.0 13 ------- null}
- -t 0.28032 -s 3 -d 2 -p ack -e 40 -c 0 -i 36 -a 0 -x {3.0 0.0 13 ------- null}
h -t 0.28032 -s 3 -d 2 -p ack -e 40 -c 0 -i 36 -a 0 -x {3.0 0.0 -1 ------- null}
- -t 0.28032 -s 2 -d 3 -p tcp -e 1000 -c 0 -i 26 -a 0 -x {0.0 3.0 16 ------N null}
h -t 0.28032 -s 2 -d 3 -p tcp -e 1000 -c 0 -i 26 -a 0 -x {0.0 3.0 -1 ------N null}
r -t 0.28072 -s 3 -d 2 -p ack -e 40 -c 0 -i 30 -a 0 -x {3.0 0.0 11 ------- null}
+ -t 0.28072 -s 2 -d 0 -p ack -e 40 -c 0 -i 30 -a 0 -x {3.0 0.0 11 ------- null}
- -t 0.28072 -s 2 -d 0 -p ack -e 40 -c 0 -i 30 -a 0 -x {3.0 0.0 11 ------- null}
h -t 0.28072 -s 2 -d 0 -p ack -e 40 -c 0 -i 30 -a 0 -x {3.0 0.0 -1 ------- null}
r -t 0.28176 -s 0 -d 2 -p tcp -e 1000 -c 0 -i 34 -a 0 -x {0.0 3.0 21 ------N null}
+ -t 0.28176 -s 2 -d 3 -p tcp -e 1000 -c 0 -i 34 -a 0 -x {0.0 3.0 21 ------N null}
r -t 0.28276 -s 0 -d 2 -p tcp -e 1000 -c 0 -i 35 -a 0 -x {0.0 3.0 22 ------N null}
+ -t 0.28276 -s 2 -d 3 -p tcp -e 1000 -c 0 -i 35 -a 0 -x {0.0 3.0 22 ------N null}
r -t 0.28576 -s 2 -d 0 -p ack -e 40 -c 0 -i 30 -a 0 -x {3.0 0.0 11 ------- null}
+ -t 0.28576 -s 0 -d 2 -p tcp -e 1000 -c 0 -i 37 -a 0 -x {0.0 3.0 23 ------N null}
- -t 0.28576 -s 0 -d 2 -p tcp -e 1000 -c 0 -i 37 -a 0 -x {0.0 3.0 23 ------N null}
h -t 0.28576 -s 0 -d 2 -p tcp -e 1000 -c 0 -i 37 -a 0 -x {0.0 3.0 -1 ------N null}
+ -t 0.28576 -s 0 -d 2 -p tcp -e 1000 -c 0 -i 38 -a 0 -x {0.0 3.0 24 ------N null}
- -t 0.28676 -s 0 -d 2 -p tcp -e 1000 -c 0 -i 38 -a 0 -x {0.0 3.0 24 ------N null}
h -t 0.28676 -s 0 -d 2 -p tcp -e 1000 -c 0 -i 38 -a 0 -x {0.0 3.0 -1 ------N null}
r -t 0.29032 -s 2 -d 3 -p tcp -e 1000 -c 0 -i 21 -a 0 -x {0.0 3.0 14 ------N null}
+ -t 0.29032 -s 3 -d 2 -p ack -e 40 -c 0 -i 39 -a 0 -x {3.0 0.0 14 ------- null}
- -t 0.29032 -s 3 -d 2 -p ack -e 40 -c 0 -i 39 -a 0 -x {3.0 0.0 14 ------- null}
h -t 0.29032 -s 3 -d 2 -p ack -e 40 -c 0 -i 39 -a 0 -x {3.0 0.0 -1 ------- null}
- -t 0.29032 -s 2 -d 3 -p tcp -e 1000 -c 0 -i 28 -a 0 -x {0.0 3.0 17 ------N null}
h -t 0.29032 -s 2 -d 3 -p tcp -e 1000 -c 0 -i 28 -a 0 -x {0.0 3.0 -1 ------N null}
r -t 0.29072 -s 3 -d 2 -p ack -e 40 -c 0 -i 33 -a 0 -x {3.0 0.0 12 ------- null}
+ -t 0.29072 -s 2 -d 0 -p ack -e 40 -c 0 -i 33 -a 0 -x {3.0 0.0 12 ------- null}
- -t 0.29072 -s 2 -d 0 -p ack -e 40 -c 0 -i 33 -a 0 -x {3.0 0.0 12 ------- null}
h -t 0.29072 -s 2 -d 0 -p ack -e 40 -c 0 -i 33 -a 0 -x {3.0 0.0 -1 ------- null}
r -t 0.29176 -s 0 -d 2 -p tcp -e 1000 -c 0 -i 37 -a 0 -x {0.0 3.0 23 ------N null}
+ -t 0.29176 -s 2 -d 3 -p tcp -e 1000 -c 0 -i 37 -a 0 -x {0.0 3.0 23 ------N null}
r -t 0.29276 -s 0 -d 2 -p tcp -e 1000 -c 0 -i 38 -a 0 -x {0.0 3.0 24 ------N null}
+ -t 0.29276 -s 2 -d 3 -p tcp -e 1000 -c 0 -i 38 -a 0 -x {0.0 3.0 24 ------N null}
r -t 0.29576 -s 2 -d 0 -p ack -e 40 -c 0 -i 33 -a 0 -x {3.0 0.0 12 ------- null}
+ -t 0.29576 -s 0 -d 2 -p tcp -e 1000 -c 0 -i 40 -a 0 -x {0.0 3.0 25 ------N null}
- -t 0.29576 -s 0 -d 2 -p tcp -e 1000 -c 0 -i 40 -a 0 -x {0.0 3.0 25 ------N null}
h -t 0.29576 -s 0 -d 2 -p tcp -e 1000 -c 0 -i 40 -a 0 -x {0.0 3.0 -1 ------N null}
+ -t 0.29576 -s 0 -d 2 -p tcp -e 1000 -c 0 -i 41 -a 0 -x {0.0 3.0 26 ------N null}
- -t 0.29676 -s 0 -d 2 -p tcp -e 1000 -c 0 -i 41 -a 0 -x {0.0 3.0 26 ------N null}
h -t 0.29676 -s 0 -d 2 -p tcp -e 1000 -c 0 -i 41 -a 0 -x {0.0 3.0 -1 ------N null}
r -t 0.30032 -s 2 -d 3 -p tcp -e 1000 -c 0 -i 25 -a 0 -x {0.0 3.0 15 ------N null}
+ -t 0.30032 -s 3 -d 2 -p ack -e 40 -c 0 -i 42 -a 0 -x {3.0 0.0 15 ------- null}
- -t 0.30032 -s 3 -d 2 -p ack -e 40 -c 0 -i 42 -a 0 -x {3.0 0.0 15 ------- null}
h -t 0.30032 -s 3 -d 2 -p ack -e 40 -c 0 -i 42 -a 0 -x {3.0 0.0 -1 ------- null}
- -t 0.30032 -s 2 -d 3 -p tcp -e 1000 -c 0 -i 29 -a 0 -x {0.0 3.0 18 ------N null}
h -t 0.30032 -s 2 -d 3 -p tcp -e 1000 -c 0 -i 29 -a 0 -x {0.0 3.0 -1 ------N null}
r -t 0.30072 -s 3 -d 2 -p ack -e 40 -c 0 -i 36 -a 0 -x {3.0 0.0 13 ------- null}
+ -t 0.30072 -s 2 -d 0 -p ack -e 40 -c 0 -i 36 -a 0 -x {3.0 0.0 13 ------- null}
- -t 0.30072 -s 2 -d 0 -p ack -e 40 -c 0 -i 36 -a 0 -x {3.0 0.0 13 ------- null}
h -t 0.30072 -s 2 -d 0 -p ack -e 40 -c 0 -i 36 -a 0 -x {3.0 0.0 -1 ------- null}
r -t 0.30176 -s 0 -d 2 -p tcp -e 1000 -c 0 -i 40 -a 0 -x {0.0 3.0 25 ------N null}
+ -t 0.30176 -s 2 -d 3 -p tcp -e 1000 -c 0 -i 40 -a 0 -x {0.0 3.0 25 ------N null}
r -t 0.30276 -s 0 -d 2 -p tcp -e 1000 -c 0 -i 41 -a 0 -x {0.0 3.0 26 ------N null}
+ -t 0.30276 -s 2 -d 3 -p tcp -e 1000 -c 0 -i 41 -a 0 -x {0.0 3.0 26 ------N null}
r -t 0.30576 -s 2 -d 0 -p ack -e 40 -c 0 -i 36 -a 0 -x {3.0 0.0 13 ------- null}
+ -t 0.30576 -s 0 -d 2 -p tcp -e 1000 -c 0 -i 43 -a 0 -x {0.0 3.0 27 ------N null}
- -t 0.30576 -s 0 -d 2 -p tcp -e 1000 -c 0 -i 43 -a 0 -x {0.0 3.0 27 ------N null}
h -t 0.30576 -s 0 -d 2 -p tcp -e 1000 -c 0 -i 43 -a 0 -x {0.0 3.0 -1 ------N null}
+ -t 0.30576 -s 0 -d 2 -p tcp -e 1000 -c 0 -i 44 -a 0 -x {0.0 3.0 28 ------N null}
- -t 0.30676 -s 0 -d 2 -p tcp -e 1000 -c 0 -i 44 -a 0 -x {0.0 3.0 28 ------N null}
h -t 0.30676 -s 0 -d 2 -p tcp -e 1000 -c 0 -i 44 -a 0 -x {0.0 3.0 -1 ------N null}
r -t 0.31032 -s 2 -d 3 -p tcp -e 1000 -c 0 -i 26 -a 0 -x {0.0 3.0 16 ------N null}
+ -t 0.31032 -s 3 -d 2 -p ack -e 40 -c 0 -i 45 -a 0 -x {3.0 0.0 16 ------- null}
- -t 0.31032 -s 3 -d 2 -p ack -e 40 -c 0 -i 45 -a 0 -x {3.0 0.0 16 ------- null}
h -t 0.31032 -s 3 -d 2 -p ack -e 40 -c 0 -i 45 -a 0 -x {3.0 0.0 -1 ------- null}
- -t 0.31032 -s 2 -d 3 -p tcp -e 1000 -c 0 -i 31 -a 0 -x {0.0 3.0 19 ------N null}
h -t 0.31032 -s 2 -d 3 -p tcp -e 1000 -c 0 -i 31 -a 0 -x {0.0 3.0 -1 ------N null}
r -t 0.31072 -s 3 -d 2 -p ack -e 40 -c 0 -i 39 -a 0 -x {3.0 0.0 14 ------- null}
+ -t 0.31072 -s 2 -d 0 -p ack -e 40 -c 0 -i 39 -a 0 -x {3.0 0.0 14 ------- null}
- -t 0.31072 -s 2 -d 0 -p ack -e 40 -c 0 -i 39 -a 0 -x {3.0 0.0 14 ------- null}
h -t 0.31072 -s 2 -d 0 -p ack -e 40 -c 0 -i 39 -a 0 -x {3.0 0.0 -1 ------- null}
r -t 0.31176 -s 0 -d 2 -p tcp -e 1000 -c 0 -i 43 -a 0 -x {0.0 3.0 27 ------N null}
+ -t 0.31176 -s 2 -d 3 -p tcp -e 1000 -c 0 -i 43 -a 0 -x {0.0 3.0 27 ------N null}
r -t 0.31276 -s 0 -d 2 -p tcp -e 1000 -c 0 -i 44 -a 0 -x {0.0 3.0 28 ------N null}
+ -t 0.31276 -s 2 -d 3 -p tcp -e 1000 -c 0 -i 44 -a 0 -x {0.0 3.0 28 ------N null}
r -t 0.31576 -s 2 -d 0 -p ack -e 40 -c 0 -i 39 -a 0 -x {3.0 0.0 14 ------- null}
+ -t 0.31576 -s 0 -d 2 -p tcp -e 1000 -c 0 -i 46 -a 0 -x {0.0 3.0 29 ------N null}
- -t 0.31576 -s 0 -d 2 -p tcp -e 1000 -c 0 -i 46 -a 0 -x {0.0 3.0 29 ------N null}
h -t 0.31576 -s 0 -d 2 -p tcp -e 1000 -c 0 -i 46 -a 0 -x {0.0 3.0 -1 ------N null}
+ -t 0.31576 -s 0 -d 2 -p tcp -e 1000 -c 0 -i 47 -a 0 -x {0.0 3.0 30 ------N null}
- -t 0.31676 -s 0 -d 2 -p tcp -e 1000 -c 0 -i 47 -a 0 -x {0.0 3.0 30 ------N null}
h -t 0.31676 -s 0 -d 2 -p tcp -e 1000 -c 0 -i 47 -a 0 -x {0.0 3.0 -1 ------N null}
r -t 0.32032 -s 2 -d 3 -p tcp -e 1000 -c 0 -i 28 -a 0 -x {0.0 3.0 17 ------N null}
+ -t 0.32032 -s 3 -d 2 -p ack -e 40 -c 0 -i 48 -a 0 -x {3.0 0.0 17 ------- null}
- -t 0.32032 -s 3 -d 2 -p ack -e 40 -c 0 -i 48 -a 0 -x {3.0 0.0 17 ------- null}
h -t 0.32032 -s 3 -d 2 -p ack -e 40 -c 0 -i 48 -a 0 -x {3.0 0.0 -1 ------- null}
- -t 0.32032 -s 2 -d 3 -p tcp -e 1000 -c 0 -i 32 -a 0 -x {0.0 3.0 20 ------N null}
h -t 0.32032 -s 2 -d 3 -p tcp -e 1000 -c 0 -i 32 -a 0 -x {0.0 3.0 -1 ------N null}
r -t 0.32072 -s 3 -d 2 -p ack -e 40 -c 0 -i 42 -a 0 -x {3.0 0.0 15 ------- null}
+ -t 0.32072 -s 2 -d 0 -p ack -e 40 -c 0 -i 42 -a 0 -x {3.0 0.0 15 ------- null}
- -t 0.32072 -s 2 -d 0 -p ack -e 40 -c 0 -i 42 -a 0 -x {3.0 0.0 15 ------- null}
h -t 0.32072 -s 2 -d 0 -p ack -e 40 -c 0 -i 42 -a 0 -x {3.0 0.0 -1 ------- null}
r -t 0.32176 -s 0 -d 2 -p tcp -e 1000 -c 0 -i 46 -a 0 -x {0.0 3.0 29 ------N null}
+ -t 0.32176 -s 2 -d 3 -p tcp -e 1000 -c 0 -i 46 -a 0 -x {0.0 3.0 29 ------N null}
r -t 0.32276 -s 0 -d 2 -p tcp -e 1000 -c 0 -i 47 -a 0 -x {0.0 3.0 30 ------N null}
+ -t 0.32276 -s 2 -d 3 -p tcp -e 1000 -c 0 -i 47 -a 0 -x {0.0 3.0 30 ------N null}
r -t 0.32576 -s 2 -d 0 -p ack -e 40 -c 0 -i 42 -a 0 -x {3.0 0.0 15 ------- null}
+ -t 0.32576 -s 0 -d 2 -p tcp -e 1000 -c 0 -i 49 -a 0 -x {0.0 3.0 31 ------N null}
- -t 0.32576 -s 0 -d 2 -p tcp -e 1000 -c 0 -i 49 -a 0 -x {0.0 3.0 31 ------N null}
h -t 0.32576 -s 0 -d 2 -p tcp -e 1000 -c 0 -i 49 -a 0 -x {0.0 3.0 -1 ------N null}
+ -t 0.32576 -s 0 -d 2 -p tcp -e 1000 -c 0 -i 50 -a 0 -x {0.0 3.0 32 ------N null}
- -t 0.32676 -s 0 -d 2 -p tcp -e 1000 -c 0 -i 50 -a 0 -x {0.0 3.0 32 ------N null}
h -t 0.32676 -s 0 -d 2 -p tcp -e 1000 -c 0 -i 50 -a 0 -x {0.0 3.0 -1 ------N null}
r -t 0.33032 -s 2 -d 3 -p tcp -e 1000 -c 0 -i 29 -a 0 -x {0.0 3.0 18 ------N null}
+ -t 0.33032 -s 3 -d 2 -p ack -e 40 -c 0 -i 51 -a 0 -x {3.0 0.0 18 ------- null}
- -t 0.33032 -s 3 -d 2 -p ack -e 40 -c 0 -i 51 -a 0 -x {3.0 0.0 18 ------- null}
h -t 0.33032 -s 3 -d 2 -p ack -e 40 -c 0 -i 51 -a 0 -x {3.0 0.0 -1 ------- null}
- -t 0.33032 -s 2 -d 3 -p tcp -e 1000 -c 0 -i 34 -a 0 -x {0.0 3.0 21 ------N null}
h -t 0.33032 -s 2 -d 3 -p tcp -e 1000 -c 0 -i 34 -a 0 -x {0.0 3.0 -1 ------N null}