+ 1 0 2 tcp 40 ------- 1 0.0 3.0 0 0 0 0x0 0 0
- 1 0 2 tcp 40 ------- 1 0.0 3.0 0 0 0 0x0 0 0
r 1.00004 0 2 tcp 40 ------- 1 0.0 3.0 0 0 0 0x0 0 0
+ 1.00004 2 3 tcp 40 ------- 1 0.0 3.0 0 0 0 0x0 0 0
- 1.00004 2 3 tcp 40 ------- 1 0.0 3.0 0 0 0 0x0 0 0
r 1.10044 2 3 tcp 40 ------- 1 0.0 3.0 0 0 0 0x0 0 0
+ 1.10044 3 2 ack 40 ------- 1 3.0 0.0 0 1 0 0x0 0 0
- 1.10044 3 2 ack 40 ------- 1 3.0 0.0 0 1 0 0x0 0 0
r 1.20084 3 2 ack 40 ------- 1 3.0 0.0 0 1 0 0x0 0 0
+ 1.20084 2 0 ack 40 ------- 1 3.0 0.0 0 1 0 0x0 0 0
- 1.20084 2 0 ack 40 ------- 1 3.0 0.0 0 1 0 0x0 0 0
r 1.20088 2 0 ack 40 ------- 1 3.0 0.0 0 1 0 0x0 0 0
+ 1.20088 0 2 tcp 1040 ------- 1 0.0 3.0 1 2 0 0x0 0 0
- 1.20088 0 2 tcp 1040 ------- 1 0.0 3.0 1 2 0 0x0 0 0
+ 1.20088 0 2 tcp 1040 ------- 1 0.0 3.0 2 3 0 0x0 0 0
r 1.20192 0 2 tcp 1040 ------- 1 0.0 3.0 1 2 0 0x0 0 0
+ 1.20192 2 3 tcp 1040 ------- 1 0.0 3.0 1 2 0 0x0 0 0
- 1.20192 2 3 tcp 1040 ------- 1 0.0 3.0 1 2 0 0x0 0 0
- 1.20192 0 2 tcp 1040 ------- 1 0.0 3.0 2 3 0 0x0 0 0
r 1.20296 0 2 tcp 1040 ------- 1 0.0 3.0 2 3 0 0x0 0 0
+ 1.20296 2 3 tcp 1040 ------- 1 0.0 3.0 2 3 0 0x0 0 0
- 1.21232 2 3 tcp 1040 ------- 1 0.0 3.0 2 3 0 0x0 0 0
r 1.31232 2 3 tcp 1040 ------- 1 0.0 3.0 1 2 0 0x0 0 0
+ 1.31232 3 2 ack 40 ------- 1 3.0 0.0 1 4 0 0x0 0 0
- 1.31232 3 2 ack 40 ------- 1 3.0 0.0 1 4 0 0x0 0 0
r 1.32272 2 3 tcp 1040 ------- 1 0.0 3.0 2 3 0 0x0 0 0
+ 1.32272 3 2 ack 40 ------- 1 3.0 0.0 2 5 0 0x0 0 0
- 1.32272 3 2 ack 40 ------- 1 3.0 0.0 2 5 0 0x0 0 0
r 1.41272 3 2 ack 40 ------- 1 3.0 0.0 1 4 0 0x0 0 0
+ 1.41272 2 0 ack 40 ------- 1 3.0 0.0 1 4 0 0x0 0 0
- 1.41272 2 0 ack 40 ------- 1 3.0 0.0 1 4 0 0x0 0 0
r 1.41276 2 0 ack 40 ------- 1 3.0 0.0 1 4 0 0x0 0 0
+ 1.41276 0 2 tcp 1040 ------- 1 0.0 3.0 3 6 0 0x0 0 0
- 1.41276 0 2 tcp 1040 ------- 1 0.0 3.0 3 6 0 0x0 0 0
+ 1.41276 0 2 tcp 1040 ------- 1 0.0 3.0 4 7 0 0x0 0 0
r 1.4138 0 2 tcp 1040 ------- 1 0.0 3.0 3 6 0 0x0 0 0
+ 1.4138 2 3 tcp 1040 ------- 1 0.0 3.0 3 6 0 0x0 0 0
- 1.4138 2 3 tcp 1040 ------- 1 0.0 3.0 3 6 0 0x0 0 0
- 1.4138 0 2 tcp 1040 ------- 1 0.0 3.0 4 7 0 0x0 0 0
r 1.41484 0 2 tcp 1040 ------- 1 0.0 3.0 4 7 0 0x0 0 0
+ 1.41484 2 3 tcp 1040 ------- 1 0.0 3.0 4 7 0 0x0 0 0
r 1.42312 3 2 ack 40 ------- 1 3.0 0.0 2 5 0 0x0 0 0
+ 1.42312 2 0 ack 40 ------- 1 3.0 0.0 2 5 0 0x0 0 0
- 1.42312 2 0 ack 40 ------- 1 3.0 0.0 2 5 0 0x0 0 0
r 1.42316 2 0 ack 40 ------- 1 3.0 0.0 2 5 0 0x0 0 0
+ 1.42316 0 2 tcp 1040 ------- 1 0.0 3.0 5 8 0 0x0 0 0
- 1.42316 0 2 tcp 1040 ------- 1 0.0 3.0 5 8 0 0x0 0 0
+ 1.42316 0 2 tcp 1040 ------- 1 0.0 3.0 6 9 0 0x0 0 0
- 1.4242 2 3 tcp 1040 ------- 1 0.0 3.0 4 7 0 0x0 0 0
r 1.4242 0 2 tcp 1040 ------- 1 0.0 3.0 5 8 0 0x0 0 0
+ 1.4242 2 3 tcp 1040 ------- 1 0.0 3.0 5 8 0 0x0 0 0
- 1.4242 0 2 tcp 1040 ------- 1 0.0 3.0 6 9 0 0x0 0 0
r 1.42524 0 2 tcp 1040 ------- 1 0.0 3.0 6 9 0 0x0 0 0
+ 1.42524 2 3 tcp 1040 ------- 1 0.0 3.0 6 9 0 0x0 0 0
- 1.4346 2 3 tcp 1040 ------- 1 0.0 3.0 5 8 0 0x0 0 0
- 1.445 2 3 tcp 1040 ------- 1 0.0 3.0 6 9 0 0x0 0 0
r 1.5242 2 3 tcp 1040 ------- 1 0.0 3.0 3 6 0 0x0 0 0
+ 1.5242 3 2 ack 40 ------- 1 3.0 0.0 3 10 0 0x0 0 0
- 1.5242 3 2 ack 40 ------- 1 3.0 0.0 3 10 0 0x0 0 0
r 1.5346 2 3 tcp 1040 ------- 1 0.0 3.0 4 7 0 0x0 0 0
+ 1.5346 3 2 ack 40 ------- 1 3.0 0.0 4 11 0 0x0 0 0
- 1.5346 3 2 ack 40 ------- 1 3.0 0.0 4 11 0 0x0 0 0
r 1.545 2 3 tcp 1040 ------- 1 0.0 3.0 5 8 0 0x0 0 0
+ 1.545 3 2 ack 40 ------- 1 3.0 0.0 5 12 0 0x0 0 0
- 1.545 3 2 ack 40 ------- 1 3.0 0.0 5 12 0 0x0 0 0
r 1.5554 2 3 tcp 1040 ------- 1 0.0 3.0 6 9 0 0x0 0 0
+ 1.5554 3 2 ack 40 ------- 1 3.0 0.0 6 13 0 0x0 0 0
- 1.5554 3 2 ack 40 ------- 1 3.0 0.0 6 13 0 0x0 0 0
r 1.6246 3 2 ack 40 ------- 1 3.0 0.0 3 10 0 0x0 0 0
+ 1.6246 2 0 ack 40 ------- 1 3.0 0.0 3 10 0 0x0 0 0
- 1.6246 2 0 ack 40 ------- 1 3.0 0.0 3 10 0 0x0 0 0
r 1.62464 2 0 ack 40 ------- 1 3.0 0.0 3 10 0 0x0 0 0
+ 1.62464 0 2 tcp 1040 ------- 1 0.0 3.0 7 14 0 0x0 0 0
- 1.62464 0 2 tcp 1040 ------- 1 0.0 3.0 7 14 0 0x0 0 0
+ 1.62464 0 2 tcp 1040 ------- 1 0.0 3.0 8 15 0 0x0 0 0
r 1.62568 0 2 tcp 1040 ------- 1 0.0 3.0 7 14 0 0x0 0 0
+ 1.62568 2 3 tcp 1040 ------- 1 0.0 3.0 7 14 0 0x0 0 0
- 1.62568 2 3 tcp 1040 ------- 1 0.0 3.0 7 14 0 0x0 0 0
- 1.62568 0 2 tcp 1040 ------- 1 0.0 3.0 8 15 0 0x0 0 0
r 1.62672 0 2 tcp 1040 ------- 1 0.0 3.0 8 15 0 0x0 0 0
+ 1.62672 2 3 tcp 1040 ------- 1 0.0 3.0 8 15 0 0x0 0 0
r 1.635 3 2 ack 40 ------- 1 3.0 0.0 4 11 0 0x0 0 0
+ 1.635 2 0 ack 40 ------- 1 3.0 0.0 4 11 0 0x0 0 0
- 1.635 2 0 ack 40 ------- 1 3.0 0.0 4 11 0 0x0 0 0
r 1.63504 2 0 ack 40 ------- 1 3.0 0.0 4 11 0 0x0 0 0
+ 1.63504 0 2 tcp 1040 ------- 1 0.0 3.0 9 16 0 0x0 0 0
- 1.63504 0 2 tcp 1040 ------- 1 0.0 3.0 9 16 0 0x0 0 0
+ 1.63504 0 2 tcp 1040 ------- 1 0.0 3.0 10 17 0 0x0 0 0
- 1.63608 2 3 tcp 1040 ------- 1 0.0 3.0 8 15 0 0x0 0 0
r 1.63608 0 2 tcp 1040 ------- 1 0.0 3.0 9 16 0 0x0 0 0
+ 1.63608 2 3 tcp 1040 ------- 1 0.0 3.0 9 16 0 0x0 0 0
- 1.63608 0 2 tcp 1040 ------- 1 0.0 3.0 10 17 0 0x0 0 0
r 1.63712 0 2 tcp 1040 ------- 1 0.0 3.0 10 17 0 0x0 0 0
+ 1.63712 2 3 tcp 1040 ------- 1 0.0 3.0 10 17 0 0x0 0 0
r 1.6454 3 2 ack 40 ------- 1 3.0 0.0 5 12 0 0x0 0 0
+ 1.6454 2 0 ack 40 ------- 1 3.0 0.0 5 12 0 0x0 0 0
- 1.6454 2 0 ack 40 ------- 1 3.0 0.0 5 12 0 0x0 0 0
r 1.64544 2 0 ack 40 ------- 1 3.0 0.0 5 12 0 0x0 0 0
+ 1.64544 0 2 tcp 1040 ------- 1 0.0 3.0 11 18 0 0x0 0 0
- 1.64544 0 2 tcp 1040 ------- 1 0.0 3.0 11 18 0 0x0 0 0
+ 1.64544 0 2 tcp 1040 ------- 1 0.0 3.0 12 19 0 0x0 0 0
- 1.64648 2 3 tcp 1040 ------- 1 0.0 3.0 9 16 0 0x0 0 0
r 1.64648 0 2 tcp 1040 ------- 1 0.0 3.0 11 18 0 0x0 0 0
+ 1.64648 2 3 tcp 1040 ------- 1 0.0 3.0 11 18 0 0x0 0 0
- 1.64648 0 2 tcp 1040 ------- 1 0.0 3.0 12 19 0 0x0 0 0
r 1.64752 0 2 tcp 1040 ------- 1 0.0 3.0 12 19 0 0x0 0 0
+ 1.64752 2 3 tcp 1040 ------- 1 0.0 3.0 12 19 0 0x0 0 0
r 1.6558 3 2 ack 40 ------- 1 3.0 0.0 6 13 0 0x0 0 0
+ 1.6558 2 0 ack 40 ------- 1 3.0 0.0 6 13 0 0x0 0 0
- 1.6558 2 0 ack 40 ------- 1 3.0 0.0 6 13 0 0x0 0 0
r 1.65584 2 0 ack 40 ------- 1 3.0 0.0 6 13 0 0x0 0 0
+ 1.65584 0 2 tcp 1040 ------- 1 0.0 3.0 13 20 0 0x0 0 0
- 1.65584 0 2 tcp 1040 ------- 1 0.0 3.0 13 20 0 0x0 0 0
+ 1.65584 0 2 tcp 1040 ------- 1 0.0 3.0 14 21 0 0x0 0 0
- 1.65688 2 3 tcp 1040 ------- 1 0.0 3.0 10 17 0 0x0 0 0
r 1.65688 0 2 tcp 1040 ------- 1 0.0 3.0 13 20 0 0x0 0 0
+ 1.65688 2 3 tcp 1040 ------- 1 0.0 3.0 13 20 0 0x0 0 0
- 1.65688 0 2 tcp 1040 ------- 1 0.0 3.0 14 21 0 0x0 0 0
r 1.65792 0 2 tcp 1040 ------- 1 0.0 3.0 14 21 0 0x0 0 0
d 1.65792 2 3 tcp 1040 ------- 1 0.0 3.0 14 21 0 0x0 0 0
- 1.66728 2 3 tcp 1040 ------- 1 0.0 3.0 11 18 0 0x0 0 0
- 1.67768 2 3 tcp 1040 ------- 1 0.0 3.0 12 19 0 0x0 0 0
- 1.68808 2 3 tcp 1040 ------- 1 0.0 3.0 13 20 0 0x0 0 0
r 1.73608 2 3 tcp 1040 ------- 1 0.0 3.0 7 14 0 0x0 0 0
+ 1.73608 3 2 ack 40 ------- 1 3.0 0.0 7 22 0 0x0 0 0
- 1.73608 3 2 ack 40 ------- 1 3.0 0.0 7 22 0 0x0 0 0
r 1.74648 2 3 tcp 1040 ------- 1 0.0 3.0 8 15 0 0x0 0 0
+ 1.74648 3 2 ack 40 ------- 1 3.0 0.0 8 23 0 0x0 0 0
- 1.74648 3 2 ack 40 ------- 1 3.0 0.0 8 23 0 0x0 0 0
r 1.75688 2 3 tcp 1040 ------- 1 0.0 3.0 9 16 0 0x0 0 0
+ 1.75688 3 2 ack 40 ------- 1 3.0 0.0 9 24 0 0x0 0 0
- 1.75688 3 2 ack 40 ------- 1 3.0 0.0 9 24 0 0x0 0 0
r 1.76728 2 3 tcp 1040 ------- 1 0.0 3.0 10 17 0 0x0 0 0
+ 1.76728 3 2 ack 40 ------- 1 3.0 0.0 10 25 0 0x0 0 0
- 1.76728 3 2 ack 40 ------- 1 3.0 0.0 10 25 0 0x0 0 0
r 1.77768 2 3 tcp 1040 ------- 1 0.0 3.0 11 18 0 0x0 0 0
+ 1.77768 3 2 ack 40 ------- 1 3.0 0.0 11 26 0 0x0 0 0
- 1.77768 3 2 ack 40 ------- 1 3.0 0.0 11 26 0 0x0 0 0
r 1.78808 2 3 tcp 1040 ------- 1 0.0 3.0 12 19 0 0x0 0 0
+ 1.78808 3 2 ack 40 ------- 1 3.0 0.0 12 27 0 0x0 0 0
- 1.78808 3 2 ack 40 ------- 1 3.0 0.0 12 27 0 0x0 0 0
r 1.79848 2 3 tcp 1040 ------- 1 0.0 3.0 13 20 0 0x0 0 0
+ 1.79848 3 2 ack 40 ------- 1 3.0 0.0 13 28 0 0x0 0 0
- 1.79848 3 2 ack 40 ------- 1 3.0 0.0 13 28 0 0x0 0 0
r 1.83648 3 2 ack 40 ------- 1 3.0 0.0 7 22 0 0x0 0 0
+ 1.83648 2 0 ack 40 ------- 1 3.0 0.0 7 22 0 0x0 0 0
- 1.83648 2 0 ack 40 ------- 1 3.0 0.0 7 22 0 0x0 0 0
r 1.83652 2 0 ack 40 ------- 1 3.0 0.0 7 22 0 0x0 0 0
+ 1.83652 0 2 tcp 1040 ------- 1 0.0 3.0 15 29 0 0x0 0 0
- 1.83652 0 2 tcp 1040 ------- 1 0.0 3.0 15 29 0 0x0 0 0
+ 1.83652 0 2 tcp 1040 ------- 1 0.0 3.0 16 30 0 0x0 0 0
r 1.83756 0 2 tcp 1040 ------- 1 0.0 3.0 15 29 0 0x0 0 0
+ 1.83756 2 3 tcp 1040 ------- 1 0.0 3.0 15 29 0 0x0 0 0
- 1.83756 2 3 tcp 1040 ------- 1 0.0 3.0 15 29 0 0x0 0 0
- 1.83756 0 2 tcp 1040 ------- 1 0.0 3.0 16 30 0 0x0 0 0
r 1.8386 0 2 tcp 1040 ------- 1 0.0 3.0 16 30 0 0x0 0 0
+ 1.8386 2 3 tcp 1040 ------- 1 0.0 3.0 16 30 0 0x0 0 0
r 1.84688 3 2 ack 40 ------- 1 3.0 0.0 8 23 0 0x0 0 0
+ 1.84688 2 0 ack 40 ------- 1 3.0 0.0 8 23 0 0x0 0 0
- 1.84688 2 0 ack 40 ------- 1 3.0 0.0 8 23 0 0x0 0 0
r 1.84692 2 0 ack 40 ------- 1 3.0 0.0 8 23 0 0x0 0 0
+ 1.84692 0 2 tcp 1040 ------- 1 0.0 3.0 17 31 0 0x0 0 0
- 1.84692 0 2 tcp 1040 ------- 1 0.0 3.0 17 31 0 0x0 0 0
+ 1.84692 0 2 tcp 1040 ------- 1 0.0 3.0 18 32 0 0x0 0 0
- 1.84796 2 3 tcp 1040 ------- 1 0.0 3.0 16 30 0 0x0 0 0
r 1.84796 0 2 tcp 1040 ------- 1 0.0 3.0 17 31 0 0x0 0 0
+ 1.84796 2 3 tcp 1040 ------- 1 0.0 3.0 17 31 0 0x0 0 0
- 1.84796 0 2 tcp 1040 ------- 1 0.0 3.0 18 32 0 0x0 0 0
r 1.849 0 2 tcp 1040 ------- 1 0.0 3.0 18 32 0 0x0 0 0
+ 1.849 2 3 tcp 1040 ------- 1 0.0 3.0 18 32 0 0x0 0 0
r 1.85728 3 2 ack 40 ------- 1 3.0 0.0 9 24 0 0x0 0 0
+ 1.85728 2 0 ack 40 ------- 1 3.0 0.0 9 24 0 0x0 0 0
- 1.85728 2 0 ack 40 ------- 1 3.0 0.0 9 24 0 0x0 0 0
r 1.85732 2 0 ack 40 ------- 1 3.0 0.0 9 24 0 0x0 0 0
+ 1.85732 0 2 tcp 1040 ------- 1 0.0 3.0 19 33 0 0x0 0 0
- 1.85732 0 2 tcp 1040 ------- 1 0.0 3.0 19 33 0 0x0 0 0
+ 1.85732 0 2 tcp 1040 ------- 1 0.0 3.0 20 34 0 0x0 0 0
- 1.85836 2 3 tcp 1040 ------- 1 0.0 3.0 17 31 0 0x0 0 0
r 1.85836 0 2 tcp 1040 ------- 1 0.0 3.0 19 33 0 0x0 0 0
+ 1.85836 2 3 tcp 1040 ------- 1 0.0 3.0 19 33 0 0x0 0 0
- 1.85836 0 2 tcp 1040 ------- 1 0.0 3.0 20 34 0 0x0 0 0
r 1.8594 0 2 tcp 1040 ------- 1 0.0 3.0 20 34 0 0x0 0 0
+ 1.8594 2 3 tcp 1040 ------- 1 0.0 3.0 20 34 0 0x0 0 0
r 1.86768 3 2 ack 40 ------- 1 3.0 0.0 10 25 0 0x0 0 0
+ 1.86768 2 0 ack 40 ------- 1 3.0 0.0 10 25 0 0x0 0 0
- 1.86768 2 0 ack 40 ------- 1 3.0 0.0 10 25 0 0x0 0 0
r 1.86772 2 0 ack 40 ------- 1 3.0 0.0 10 25 0 0x0 0 0
+ 1.86772 0 2 tcp 1040 ------- 1 0.0 3.0 21 35 0 0x0 0 0
- 1.86772 0 2 tcp 1040 ------- 1 0.0 3.0 21 35 0 0x0 0 0
+ 1.86772 0 2 tcp 1040 ------- 1 0.0 3.0 22 36 0 0x0 0 0
- 1.86876 2 3 tcp 1040 ------- 1 0.0 3.0 18 32 0 0x0 0 0
r 1.86876 0 2 tcp 1040 ------- 1 0.0 3.0 21 35 0 0x0 0 0
+ 1.86876 2 3 tcp 1040 ------- 1 0.0 3.0 21 35 0 0x0 0 0
- 1.86876 0 2 tcp 1040 ------- 1 0.0 3.0 22 36 0 0x0 0 0
r 1.8698 0 2 tcp 1040 ------- 1 0.0 3.0 22 36 0 0x0 0 0
+ 1.8698 2 3 tcp 1040 ------- 1 0.0 3.0 22 36 0 0x0 0 0
r 1.87808 3 2 ack 40 ------- 1 3.0 0.0 11 26 0 0x0 0 0
+ 1.87808 2 0 ack 40 ------- 1 3.0 0.0 11 26 0 0x0 0 0
- 1.87808 2 0 ack 40 ------- 1 3.0 0.0 11 26 0 0x0 0 0
r 1.87812 2 0 ack 40 ------- 1 3.0 0.0 11 26 0 0x0 0 0
+ 1.87812 0 2 tcp 1040 ------- 1 0.0 3.0 23 37 0 0x0 0 0
- 1.87812 0 2 tcp 1040 ------- 1 0.0 3.0 23 37 0 0x0 0 0
+ 1.87812 0 2 tcp 1040 ------- 1 0.0 3.0 24 38 0 0x0 0 0
- 1.87916 2 3 tcp 1040 ------- 1 0.0 3.0 19 33 0 0x0 0 0
r 1.87916 0 2 tcp 1040 ------- 1 0.0 3.0 23 37 0 0x0 0 0
+ 1.87916 2 3 tcp 1040 ------- 1 0.0 3.0 23 37 0 0x0 0 0
- 1.87916 0 2 tcp 1040 ------- 1 0.0 3.0 24 38 0 0x0 0 0
r 1.8802 0 2 tcp 1040 ------- 1 0.0 3.0 24 38 0 0x0 0 0
+ 1.8802 2 3 tcp 1040 ------- 1 0.0 3.0 24 38 0 0x0 0 0
r 1.88848 3 2 ack 40 ------- 1 3.0 0.0 12 27 0 0x0 0 0
+ 1.88848 2 0 ack 40 ------- 1 3.0 0.0 12 27 0 0x0 0 0
- 1.88848 2 0 ack 40 ------- 1 3.0 0.0 12 27 0 0x0 0 0
r 1.88852 2 0 ack 40 ------- 1 3.0 0.0 12 27 0 0x0 0 0
+ 1.88852 0 2 tcp 1040 ------- 1 0.0 3.0 25 39 0 0x0 0 0
- 1.88852 0 2 tcp 1040 ------- 1 0.0 3.0 25 39 0 0x0 0 0
+ 1.88852 0 2 tcp 1040 ------- 1 0.0 3.0 26 40 0 0x0 0 0
- 1.88956 2 3 tcp 1040 ------- 1 0.0 3.0 20 34 0 0x0 0 0
r 1.88956 0 2 tcp 1040 ------- 1 0.0 3.0 25 39 0 0x0 0 0
+ 1.88956 2 3 tcp 1040 ------- 1 0.0 3.0 25 39 0 0x0 0 0
- 1.88956 0 2 tcp 1040 ------- 1 0.0 3.0 26 40 0 0x0 0 0
r 1.8906 0 2 tcp 1040 ------- 1 0.0 3.0 26 40 0 0x0 0 0
d 1.8906 2 3 tcp 1040 ------- 1 0.0 3.0 26 40 0 0x0 0 0
r 1.89888 3 2 ack 40 ------- 1 3.0 0.0 13 28 0 0x0 0 0
+ 1.89888 2 0 ack 40 ------- 1 3.0 0.0 13 28 0 0x0 0 0
- 1.89888 2 0 ack 40 ------- 1 3.0 0.0 13 28 0 0x0 0 0
r 1.89892 2 0 ack 40 ------- 1 3.0 0.0 13 28 0 0x0 0 0
+ 1.89892 0 2 tcp 1040 ------- 1 0.0 3.0 27 41 0 0x0 0 0
- 1.89892 0 2 tcp 1040 ------- 1 0.0 3.0 27 41 0 0x0 0 0
+ 1.89892 0 2 tcp 1040 ------- 1 0.0 3.0 28 42 0 0x0 0 0
- 1.89996 2 3 tcp 1040 ------- 1 0.0 3.0 21 35 0 0x0 0 0
r 1.89996 0 2 tcp 1040 ------- 1 0.0 3.0 27 41 0 0x0 0 0
+ 1.89996 2 3 tcp 1040 ------- 1 0.0 3.0 27 41 0 0x0 0 0
- 1.89996 0 2 tcp 1040 ------- 1 0.0 3.0 28 42 0 0x0 0 0
r 1.901 0 2 tcp 1040 ------- 1 0.0 3.0 28 42 0 0x0 0 0
d 1.901 2 3 tcp 1040 ------- 1 0.0 3.0 28 42 0 0x0 0 0
- 1.91036 2 3 tcp 1040 ------- 1 0.0 3.0 22 36 0 0x0 0 0
- 1.92076 2 3 tcp 1040 ------- 1 0.0 3.0 23 37 0 0x0 0 0
- 1.93116 2 3 tcp 1040 ------- 1 0.0 3.0 24 38 0 0x0 0 0
- 1.94156 2 3 tcp 1040 ------- 1 0.0 3.0 25 39 0 0x0 0 0
r 1.94796 2 3 tcp 1040 ------- 1 0.0 3.0 15 29 0 0x0 0 0
+ 1.94796 3 2 ack 40 ------- 1 3.0 0.0 13 43 0 0x0 0 0
- 1.94796 3 2 ack 40 ------- 1 3.0 0.0 13 43 0 0x0 0 0
- 1.95196 2 3 tcp 1040 ------- 1 0.0 3.0 27 41 0 0x0 0 0
r 1.95836 2 3 tcp 1040 ------- 1 0.0 3.0 16 30 0 0x0 0 0
+ 1.95836 3 2 ack 40 ------- 1 3.0 0.0 13 44 0 0x0 0 0
- 1.95836 3 2 ack 40 ------- 1 3.0 0.0 13 44 0 0x0 0 0
r 1.96876 2 3 tcp 1040 ------- 1 0.0 3.0 17 31 0 0x0 0 0
+ 1.96876 3 2 ack 40 ------- 1 3.0 0.0 13 45 0 0x0 0 0
- 1.96876 3 2 ack 40 ------- 1 3.0 0.0 13 45 0 0x0 0 0
r 1.97916 2 3 tcp 1040 ------- 1 0.0 3.0 18 32 0 0x0 0 0
+ 1.97916 3 2 ack 40 ------- 1 3.0 0.0 13 46 0 0x0 0 0
- 1.97916 3 2 ack 40 ------- 1 3.0 0.0 13 46 0 0x0 0 0
r 1.98956 2 3 tcp 1040 ------- 1 0.0 3.0 19 33 0 0x0 0 0
+ 1.98956 3 2 ack 40 ------- 1 3.0 0.0 13 47 0 0x0 0 0
- 1.98956 3 2 ack 40 ------- 1 3.0 0.0 13 47 0 0x0 0 0
r 1.99996 2 3 tcp 1040 ------- 1 0.0 3.0 20 34 0 0x0 0 0
+ 1.99996 3 2 ack 40 ------- 1 3.0 0.0 13 48 0 0x0 0 0
- 1.99996 3 2 ack 40 ------- 1 3.0 0.0 13 48 0 0x0 0 0
r 2.01036 2 3 tcp 1040 ------- 1 0.0 3.0 21 35 0 0x0 0 0
+ 2.01036 3 2 ack 40 ------- 1 3.0 0.0 13 49 0 0x0 0 0
- 2.01036 3 2 ack 40 ------- 1 3.0 0.0 13 49 0 0x0 0 0
r 2.02076 2 3 tcp 1040 ------- 1 0.0 3.0 22 36 0 0x0 0 0
+ 2.02076 3 2 ack 40 ------- 1 3.0 0.0 13 50 0 0x0 0 0
- 2.02076 3 2 ack 40 ------- 1 3.0 0.0 13 50 0 0x0 0 0
r 2.03116 2 3 tcp 1040 ------- 1 0.0 3.0 23 37 0 0x0 0 0
+ 2.03116 3 2 ack 40 ------- 1 3.0 0.0 13 51 0 0x0 0 0
- 2.03116 3 2 ack 40 ------- 1 3.0 0.0 13 51 0 0x0 0 0
r 2.04156 2 3 tcp 1040 ------- 1 0.0 3.0 24 38 0 0x0 0 0
+ 2.04156 3 2 ack 40 ------- 1 3.0 0.0 13 52 0 0x0 0 0
- 2.04156 3 2 ack 40 ------- 1 3.0 0.0 13 52 0 0x0 0 0
r 2.04836 3 2 ack 40 ------- 1 3.0 0.0 13 43 0 0x0 0 0
+ 2.04836 2 0 ack 40 ------- 1 3.0 0.0 13 43 0 0x0 0 0
- 2.04836 2 0 ack 40 ------- 1 3.0 0.0 13 43 0 0x0 0 0
r 2.0484 2 0 ack 40 ------- 1 3.0 0.0 13 43 0 0x0 0 0
+ 2.0484 0 2 tcp 1040 ------- 1 0.0 3.0 29 53 0 0x0 0 0
- 2.0484 0 2 tcp 1040 ------- 1 0.0 3.0 29 53 0 0x0 0 0
r 2.04944 0 2 tcp 1040 ------- 1 0.0 3.0 29 53 0 0x0 0 0
+ 2.04944 2 3 tcp 1040 ------- 1 0.0 3.0 29 53 0 0x0 0 0
- 2.04944 2 3 tcp 1040 ------- 1 0.0 3.0 29 53 0 0x0 0 0
r 2.05196 2 3 tcp 1040 ------- 1 0.0 3.0 25 39 0 0x0 0 0
+ 2.05196 3 2 ack 40 ------- 1 3.0 0.0 13 54 0 0x0 0 0
- 2.05196 3 2 ack 40 ------- 1 3.0 0.0 13 54 0 0x0 0 0
r 2.05876 3 2 ack 40 ------- 1 3.0 0.0 13 44 0 0x0 0 0
+ 2.05876 2 0 ack 40 ------- 1 3.0 0.0 13 44 0 0x0 0 0
- 2.05876 2 0 ack 40 ------- 1 3.0 0.0 13 44 0 0x0 0 0
r 2.0588 2 0 ack 40 ------- 1 3.0 0.0 13 44 0 0x0 0 0
+ 2.0588 0 2 tcp 1040 ------- 1 0.0 3.0 30 55 0 0x0 0 0
- 2.0588 0 2 tcp 1040 ------- 1 0.0 3.0 30 55 0 0x0 0 0
r 2.05984 0 2 tcp 1040 ------- 1 0.0 3.0 30 55 0 0x0 0 0
+ 2.05984 2 3 tcp 1040 ------- 1 0.0 3.0 30 55 0 0x0 0 0
- 2.05984 2 3 tcp 1040 ------- 1 0.0 3.0 30 55 0 0x0 0 0
r 2.06236 2 3 tcp 1040 ------- 1 0.0 3.0 27 41 0 0x0 0 0
+ 2.06236 3 2 ack 40 ------- 1 3.0 0.0 13 56 0 0x0 0 0
- 2.06236 3 2 ack 40 ------- 1 3.0 0.0 13 56 0 0x0 0 0
r 2.06916 3 2 ack 40 ------- 1 3.0 0.0 13 45 0 0x0 0 0
+ 2.06916 2 0 ack 40 ------- 1 3.0 0.0 13 45 0 0x0 0 0
- 2.06916 2 0 ack 40 ------- 1 3.0 0.0 13 45 0 0x0 0 0
r 2.0692 2 0 ack 40 ------- 1 3.0 0.0 13 45 0 0x0 0 0
+ 2.0692 0 2 tcp 1040 ---A--- 1 0.0 3.0 14 57 0 0x0 0 0
- 2.0692 0 2 tcp 1040 ---A--- 1 0.0 3.0 14 57 0 0x0 0 0
r 2.07024 0 2 tcp 1040 ---A--- 1 0.0 3.0 14 57 0 0x0 0 0
+ 2.07024 2 3 tcp 1040 ---A--- 1 0.0 3.0 14 57 0 0x0 0 0
- 2.07024 2 3 tcp 1040 ---A--- 1 0.0 3.0 14 57 0 0x0 0 0
r 2.07956 3 2 ack 40 ------- 1 3.0 0.0 13 46 0 0x0 0 0
+ 2.07956 2 0 ack 40 ------- 1 3.0 0.0 13 46 0 0x0 0 0
- 2.07956 2 0 ack 40 ------- 1 3.0 0.0 13 46 0 0x0 0 0
r 2.0796 2 0 ack 40 ------- 1 3.0 0.0 13 46 0 0x0 0 0
r 2.08996 3 2 ack 40 ------- 1 3.0 0.0 13 47 0 0x0 0 0
+ 2.08996 2 0 ack 40 ------- 1 3.0 0.0 13 47 0 0x0 0 0
- 2.08996 2 0 ack 40 ------- 1 3.0 0.0 13 47 0 0x0 0 0
r 2.09 2 0 ack 40 ------- 1 3.0 0.0 13 47 0 0x0 0 0
r 2.10036 3 2 ack 40 ------- 1 3.0 0.0 13 48 0 0x0 0 0
+ 2.10036 2 0 ack 40 ------- 1 3.0 0.0 13 48 0 0x0 0 0
- 2.10036 2 0 ack 40 ------- 1 3.0 0.0 13 48 0 0x0 0 0
r 2.1004 2 0 ack 40 ------- 1 3.0 0.0 13 48 0 0x0 0 0
r 2.11076 3 2 ack 40 ------- 1 3.0 0.0 13 49 0 0x0 0 0
+ 2.11076 2 0 ack 40 ------- 1 3.0 0.0 13 49 0 0x0 0 0
- 2.11076 2 0 ack 40 ------- 1 3.0 0.0 13 49 0 0x0 0 0
r 2.1108 2 0 ack 40 ------- 1 3.0 0.0 13 49 0 0x0 0 0
r 2.12116 3 2 ack 40 ------- 1 3.0 0.0 13 50 0 0x0 0 0
+ 2.12116 2 0 ack 40 ------- 1 3.0 0.0 13 50 0 0x0 0 0
- 2.12116 2 0 ack 40 ------- 1 3.0 0.0 13 50 0 0x0 0 0
r 2.1212 2 0 ack 40 ------- 1 3.0 0.0 13 50 0 0x0 0 0
r 2.13156 3 2 ack 40 ------- 1 3.0 0.0 13 51 0 0x0 0 0
+ 2.13156 2 0 ack 40 ------- 1 3.0 0.0 13 51 0 0x0 0 0
- 2.13156 2 0 ack 40 ------- 1 3.0 0.0 13 51 0 0x0 0 0
r 2.1316 2 0 ack 40 ------- 1 3.0 0.0 13 51 0 0x0 0 0
r 2.14196 3 2 ack 40 ------- 1 3.0 0.0 13 52 0 0x0 0 0
+ 2.14196 2 0 ack 40 ------- 1 3.0 0.0 13 52 0 0x0 0 0
- 2.14196 2 0 ack 40 ------- 1 3.0 0.0 13 52 0 0x0 0 0
r 2.142 2 0 ack 40 ------- 1 3.0 0.0 13 52 0 0x0 0 0
r 2.15236 3 2 ack 40 ------- 1 3.0 0.0 13 54 0 0x0 0 0
+ 2.15236 2 0 ack 40 ------- 1 3.0 0.0 13 54 0 0x0 0 0
- 2.15236 2 0 ack 40 ------- 1 3.0 0.0 13 54 0 0x0 0 0
r 2.1524 2 0 ack 40 ------- 1 3.0 0.0 13 54 0 0x0 0 0
+ 2.1524 0 2 tcp 1040 ------- 1 0.0 3.0 31 58 0 0x0 0 0
- 2.1524 0 2 tcp 1040 ------- 1 0.0 3.0 31 58 0 0x0 0 0
r 2.15344 0 2 tcp 1040 ------- 1 0.0 3.0 31 58 0 0x0 0 0
+ 2.15344 2 3 tcp 1040 ------- 1 0.0 3.0 31 58 0 0x0 0 0
- 2.15344 2 3 tcp 1040 ------- 1 0.0 3.0 31 58 0 0x0 0 0
r 2.15984 2 3 tcp 1040 ------- 1 0.0 3.0 29 53 0 0x0 0 0
+ 2.15984 3 2 ack 40 ------- 1 3.0 0.0 13 59 0 0x0 0 0
- 2.15984 3 2 ack 40 ------- 1 3.0 0.0 13 59 0 0x0 0 0
r 2.16276 3 2 ack 40 ------- 1 3.0 0.0 13 56 0 0x0 0 0
+ 2.16276 2 0 ack 40 ------- 1 3.0 0.0 13 56 0 0x0 0 0
- 2.16276 2 0 ack 40 ------- 1 3.0 0.0 13 56 0 0x0 0 0
r 2.1628 2 0 ack 40 ------- 1 3.0 0.0 13 56 0 0x0 0 0
+ 2.1628 0 2 tcp 1040 ------- 1 0.0 3.0 32 60 0 0x0 0 0
- 2.1628 0 2 tcp 1040 ------- 1 0.0 3.0 32 60 0 0x0 0 0
r 2.16384 0 2 tcp 1040 ------- 1 0.0 3.0 32 60 0 0x0 0 0
+ 2.16384 2 3 tcp 1040 ------- 1 0.0 3.0 32 60 0 0x0 0 0
- 2.16384 2 3 tcp 1040 ------- 1 0.0 3.0 32 60 0 0x0 0 0
r 2.17024 2 3 tcp 1040 ------- 1 0.0 3.0 30 55 0 0x0 0 0
+ 2.17024 3 2 ack 40 ------- 1 3.0 0.0 13 61 0 0x0 0 0
- 2.17024 3 2 ack 40 ------- 1 3.0 0.0 13 61 0 0x0 0 0
r 2.18064 2 3 tcp 1040 ---A--- 1 0.0 3.0 14 57 0 0x0 0 0
+ 2.18064 3 2 ack 40 ------- 1 3.0 0.0 25 62 0 0x0 0 0
- 2.18064 3 2 ack 40 ------- 1 3.0 0.0 25 62 0 0x0 0 0
r 2.26024 3 2 ack 40 ------- 1 3.0 0.0 13 59 0 0x0 0 0
+ 2.26024 2 0 ack 40 ------- 1 3.0 0.0 13 59 0 0x0 0 0
- 2.26024 2 0 ack 40 ------- 1 3.0 0.0 13 59 0 0x0 0 0
r 2.26028 2 0 ack 40 ------- 1 3.0 0.0 13 59 0 0x0 0 0
+ 2.26028 0 2 tcp 1040 ------- 1 0.0 3.0 33 63 0 0x0 0 0
- 2.26028 0 2 tcp 1040 ------- 1 0.0 3.0 33 63 0 0x0 0 0
r 2.26132 0 2 tcp 1040 ------- 1 0.0 3.0 33 63 0 0x0 0 0
+ 2.26132 2 3 tcp 1040 ------- 1 0.0 3.0 33 63 0 0x0 0 0
- 2.26132 2 3 tcp 1040 ------- 1 0.0 3.0 33 63 0 0x0 0 0
r 2.26384 2 3 tcp 1040 ------- 1 0.0 3.0 31 58 0 0x0 0 0
+ 2.26384 3 2 ack 40 ------- 1 3.0 0.0 25 64 0 0x0 0 0
- 2.26384 3 2 ack 40 ------- 1 3.0 0.0 25 64 0 0x0 0 0
r 2.27064 3 2 ack 40 ------- 1 3.0 0.0 13 61 0 0x0 0 0
+ 2.27064 2 0 ack 40 ------- 1 3.0 0.0 13 61 0 0x0 0 0
- 2.27064 2 0 ack 40 ------- 1 3.0 0.0 13 61 0 0x0 0 0
r 2.27068 2 0 ack 40 ------- 1 3.0 0.0 13 61 0 0x0 0 0
+ 2.27068 0 2 tcp 1040 ------- 1 0.0 3.0 34 65 0 0x0 0 0
- 2.27068 0 2 tcp 1040 ------- 1 0.0 3.0 34 65 0 0x0 0 0
r 2.27172 0 2 tcp 1040 ------- 1 0.0 3.0 34 65 0 0x0 0 0
+ 2.27172 2 3 tcp 1040 ------- 1 0.0 3.0 34 65 0 0x0 0 0
- 2.27172 2 3 tcp 1040 ------- 1 0.0 3.0 34 65 0 0x0 0 0
r 2.27424 2 3 tcp 1040 ------- 1 0.0 3.0 32 60 0 0x0 0 0
+ 2.27424 3 2 ack 40 ------- 1 3.0 0.0 25 66 0 0x0 0 0
- 2.27424 3 2 ack 40 ------- 1 3.0 0.0 25 66 0 0x0 0 0
r 2.28104 3 2 ack 40 ------- 1 3.0 0.0 25 62 0 0x0 0 0
+ 2.28104 2 0 ack 40 ------- 1 3.0 0.0 25 62 0 0x0 0 0
- 2.28104 2 0 ack 40 ------- 1 3.0 0.0 25 62 0 0x0 0 0
r 2.28108 2 0 ack 40 ------- 1 3.0 0.0 25 62 0 0x0 0 0
+ 2.28108 0 2 tcp 1040 ------- 1 0.0 3.0 26 67 0 0x0 0 0
- 2.28108 0 2 tcp 1040 ------- 1 0.0 3.0 26 67 0 0x0 0 0
r 2.28212 0 2 tcp 1040 ------- 1 0.0 3.0 26 67 0 0x0 0 0
+ 2.28212 2 3 tcp 1040 ------- 1 0.0 3.0 26 67 0 0x0 0 0
- 2.28212 2 3 tcp 1040 ------- 1 0.0 3.0 26 67 0 0x0 0 0
r 2.36424 3 2 ack 40 ------- 1 3.0 0.0 25 64 0 0x0 0 0
+ 2.36424 2 0 ack 40 ------- 1 3.0 0.0 25 64 0 0x0 0 0
- 2.36424 2 0 ack 40 ------- 1 3.0 0.0 25 64 0 0x0 0 0
r 2.36428 2 0 ack 40 ------- 1 3.0 0.0 25 64 0 0x0 0 0
r 2.37172 2 3 tcp 1040 ------- 1 0.0 3.0 33 63 0 0x0 0 0
+ 2.37172 3 2 ack 40 ------- 1 3.0 0.0 25 68 0 0x0 0 0
- 2.37172 3 2 ack 40 ------- 1 3.0 0.0 25 68 0 0x0 0 0
r 2.37464 3 2 ack 40 ------- 1 3.0 0.0 25 66 0 0x0 0 0
+ 2.37464 2 0 ack 40 ------- 1 3.0 0.0 25 66 0 0x0 0 0
- 2.37464 2 0 ack 40 ------- 1 3.0 0.0 25 66 0 0x0 0 0
r 2.37468 2 0 ack 40 ------- 1 3.0 0.0 25 66 0 0x0 0 0
r 2.38212 2 3 tcp 1040 ------- 1 0.0 3.0 34 65 0 0x0 0 0
+ 2.38212 3 2 ack 40 ------- 1 3.0 0.0 25 69 0 0x0 0 0
- 2.38212 3 2 ack 40 ------- 1 3.0 0.0 25 69 0 0x0 0 0
r 2.39252 2 3 tcp 1040 ------- 1 0.0 3.0 26 67 0 0x0 0 0
+ 2.39252 3 2 ack 40 ------- 1 3.0 0.0 27 70 0 0x0 0 0
- 2.39252 3 2 ack 40 ------- 1 3.0 0.0 27 70 0 0x0 0 0
r 2.47212 3 2 ack 40 ------- 1 3.0 0.0 25 68 0 0x0 0 0
+ 2.47212 2 0 ack 40 ------- 1 3.0 0.0 25 68 0 0x0 0 0
- 2.47212 2 0 ack 40 ------- 1 3.0 0.0 25 68 0 0x0 0 0
r 2.47216 2 0 ack 40 ------- 1 3.0 0.0 25 68 0 0x0 0 0
+ 2.47216 0 2 tcp 1040 ------- 1 0.0 3.0 35 71 0 0x0 0 0
- 2.47216 0 2 tcp 1040 ------- 1 0.0 3.0 35 71 0 0x0 0 0
r 2.4732 0 2 tcp 1040 ------- 1 0.0 3.0 35 71 0 0x0 0 0
+ 2.4732 2 3 tcp 1040 ------- 1 0.0 3.0 35 71 0 0x0 0 0
- 2.4732 2 3 tcp 1040 ------- 1 0.0 3.0 35 71 0 0x0 0 0
r 2.48252 3 2 ack 40 ------- 1 3.0 0.0 25 69 0 0x0 0 0
+ 2.48252 2 0 ack 40 ------- 1 3.0 0.0 25 69 0 0x0 0 0
- 2.48252 2 0 ack 40 ------- 1 3.0 0.0 25 69 0 0x0 0 0
r 2.48256 2 0 ack 40 ------- 1 3.0 0.0 25 69 0 0x0 0 0
+ 2.48256 0 2 tcp 1040 ------- 1 0.0 3.0 36 72 0 0x0 0 0
- 2.48256 0 2 tcp 1040 ------- 1 0.0 3.0 36 72 0 0x0 0 0
r 2.4836 0 2 tcp 1040 ------- 1 0.0 3.0 36 72 0 0x0 0 0
+ 2.4836 2 3 tcp 1040 ------- 1 0.0 3.0 36 72 0 0x0 0 0
- 2.4836 2 3 tcp 1040 ------- 1 0.0 3.0 36 72 0 0x0 0 0
r 2.49292 3 2 ack 40 ------- 1 3.0 0.0 27 70 0 0x0 0 0
+ 2.49292 2 0 ack 40 ------- 1 3.0 0.0 27 70 0 0x0 0 0
- 2.49292 2 0 ack 40 ------- 1 3.0 0.0 27 70 0 0x0 0 0
r 2.49296 2 0 ack 40 ------- 1 3.0 0.0 27 70 0 0x0 0 0
+ 2.49296 0 2 tcp 1040 ------- 1 0.0 3.0 28 73 0 0x0 0 0
- 2.49296 0 2 tcp 1040 ------- 1 0.0 3.0 28 73 0 0x0 0 0
r 2.494 0 2 tcp 1040 ------- 1 0.0 3.0 28 73 0 0x0 0 0
+ 2.494 2 3 tcp 1040 ------- 1 0.0 3.0 28 73 0 0x0 0 0
- 2.494 2 3 tcp 1040 ------- 1 0.0 3.0 28 73 0 0x0 0 0
r 2.5836 2 3 tcp 1040 ------- 1 0.0 3.0 35 71 0 0x0 0 0
+ 2.5836 3 2 ack 40 ------- 1 3.0 0.0 27 74 0 0x0 0 0
- 2.5836 3 2 ack 40 ------- 1 3.0 0.0 27 74 0 0x0 0 0
r 2.594 2 3 tcp 1040 ------- 1 0.0 3.0 36 72 0 0x0 0 0
+ 2.594 3 2 ack 40 ------- 1 3.0 0.0 27 75 0 0x0 0 0
- 2.594 3 2 ack 40 ------- 1 3.0 0.0 27 75 0 0x0 0 0
r 2.6044 2 3 tcp 1040 ------- 1 0.0 3.0 28 73 0 0x0 0 0
+ 2.6044 3 2 ack 40 ------- 1 3.0 0.0 36 76 0 0x0 0 0
- 2.6044 3 2 ack 40 ------- 1 3.0 0.0 36 76 0 0x0 0 0
r 2.684 3 2 ack 40 ------- 1 3.0 0.0 27 74 0 0x0 0 0
+ 2.684 2 0 ack 40 ------- 1 3.0 0.0 27 74 0 0x0 0 0
- 2.684 2 0 ack 40 ------- 1 3.0 0.0 27 74 0 0x0 0 0
r 2.68404 2 0 ack 40 ------- 1 3.0 0.0 27 74 0 0x0 0 0
r 2.6944 3 2 ack 40 ------- 1 3.0 0.0 27 75 0 0x0 0 0
+ 2.6944 2 0 ack 40 ------- 1 3.0 0.0 27 75 0 0x0 0 0
- 2.6944 2 0 ack 40 ------- 1 3.0 0.0 27 75 0 0x0 0 0
r 2.69444 2 0 ack 40 ------- 1 3.0 0.0 27 75 0 0x0 0 0
r 2.7048 3 2 ack 40 ------- 1 3.0 0.0 36 76 0 0x0 0 0
+ 2.7048 2 0 ack 40 ------- 1 3.0 0.0 36 76 0 0x0 0 0
- 2.7048 2 0 ack 40 ------- 1 3.0 0.0 36 76 0 0x0 0 0
r 2.70484 2 0 ack 40 ------- 1 3.0 0.0 36 76 0 0x0 0 0
+ 2.70484 0 2 tcp 1040 ------- 1 0.0 3.0 37 77 0 0x0 0 0
- 2.70484 0 2 tcp 1040 ------- 1 0.0 3.0 37 77 0 0x0 0 0
+ 2.70484 0 2 tcp 1040 ------- 1 0.0 3.0 38 78 0 0x0 0 0
+ 2.70484 0 2 tcp 1040 ------- 1 0.0 3.0 39 79 0 0x0 0 0
+ 2.70484 0 2 tcp 1040 ------- 1 0.0 3.0 40 80 0 0x0 0 0
+ 2.70484 0 2 tcp 1040 ------- 1 0.0 3.0 41 81 0 0x0 0 0
+ 2.70484 0 2 tcp 1040 ------- 1 0.0 3.0 42 82 0 0x0 0 0
+ 2.70484 0 2 tcp 1040 ------- 1 0.0 3.0 43 83 0 0x0 0 0
r 2.70588 0 2 tcp 1040 ------- 1 0.0 3.0 37 77 0 0x0 0 0
+ 2.70588 2 3 tcp 1040 ------- 1 0.0 3.0 37 77 0 0x0 0 0
- 2.70588 2 3 tcp 1040 ------- 1 0.0 3.0 37 77 0 0x0 0 0
- 2.70588 0 2 tcp 1040 ------- 1 0.0 3.0 38 78 0 0x0 0 0
r 2.70692 0 2 tcp 1040 ------- 1 0.0 3.0 38 78 0 0x0 0 0
+ 2.70692 2 3 tcp 1040 ------- 1 0.0 3.0 38 78 0 0x0 0 0
- 2.70692 0 2 tcp 1040 ------- 1 0.0 3.0 39 79 0 0x0 0 0
r 2.70796 0 2 tcp 1040 ------- 1 0.0 3.0 39 79 0 0x0 0 0
+ 2.70796 2 3 tcp 1040 ------- 1 0.0 3.0 39 79 0 0x0 0 0
- 2.70796 0 2 tcp 1040 ------- 1 0.0 3.0 40 80 0 0x0 0 0
r 2.709 0 2 tcp 1040 ------- 1 0.0 3.0 40 80 0 0x0 0 0
+ 2.709 2 3 tcp 1040 ------- 1 0.0 3.0 40 80 0 0x0 0 0
- 2.709 0 2 tcp 1040 ------- 1 0.0 3.0 41 81 0 0x0 0 0
r 2.71004 0 2 tcp 1040 ------- 1 0.0 3.0 41 81 0 0x0 0 0
+ 2.71004 2 3 tcp 1040 ------- 1 0.0 3.0 41 81 0 0x0 0 0
- 2.71004 0 2 tcp 1040 ------- 1 0.0 3.0 42 82 0 0x0 0 0
r 2.71108 0 2 tcp 1040 ------- 1 0.0 3.0 42 82 0 0x0 0 0
+ 2.71108 2 3 tcp 1040 ------- 1 0.0 3.0 42 82 0 0x0 0 0
- 2.71108 0 2 tcp 1040 ------- 1 0.0 3.0 43 83 0 0x0 0 0
r 2.71212 0 2 tcp 1040 ------- 1 0.0 3.0 43 83 0 0x0 0 0
+ 2.71212 2 3 tcp 1040 ------- 1 0.0 3.0 43 83 0 0x0 0 0
- 2.71628 2 3 tcp 1040 ------- 1 0.0 3.0 38 78 0 0x0 0 0
- 2.72668 2 3 tcp 1040 ------- 1 0.0 3.0 39 79 0 0x0 0 0
- 2.73708 2 3 tcp 1040 ------- 1 0.0 3.0 40 80 0 0x0 0 0
- 2.74748 2 3 tcp 1040 ------- 1 0.0 3.0 41 81 0 0x0 0 0
- 2.75788 2 3 tcp 1040 ------- 1 0.0 3.0 42 82 0 0x0 0 0
- 2.76828 2 3 tcp 1040 ------- 1 0.0 3.0 43 83 0 0x0 0 0
r 2.81628 2 3 tcp 1040 ------- 1 0.0 3.0 37 77 0 0x0 0 0
+ 2.81628 3 2 ack 40 ------- 1 3.0 0.0 37 84 0 0x0 0 0
- 2.81628 3 2 ack 40 ------- 1 3.0 0.0 37 84 0 0x0 0 0
r 2.82668 2 3 tcp 1040 ------- 1 0.0 3.0 38 78 0 0x0 0 0
+ 2.82668 3 2 ack 40 ------- 1 3.0 0.0 38 85 0 0x0 0 0
- 2.82668 3 2 ack 40 ------- 1 3.0 0.0 38 85 0 0x0 0 0
r 2.83708 2 3 tcp 1040 ------- 1 0.0 3.0 39 79 0 0x0 0 0
+ 2.83708 3 2 ack 40 ------- 1 3.0 0.0 39 86 0 0x0 0 0
- 2.83708 3 2 ack 40 ------- 1 3.0 0.0 39 86 0 0x0 0 0
r 2.84748 2 3 tcp 1040 ------- 1 0.0 3.0 40 80 0 0x0 0 0
+ 2.84748 3 2 ack 40 ------- 1 3.0 0.0 40 87 0 0x0 0 0
- 2.84748 3 2 ack 40 ------- 1 3.0 0.0 40 87 0 0x0 0 0
r 2.85788 2 3 tcp 1040 ------- 1 0.0 3.0 41 81 0 0x0 0 0
+ 2.85788 3 2 ack 40 ------- 1 3.0 0.0 41 88 0 0x0 0 0
- 2.85788 3 2 ack 40 ------- 1 3.0 0.0 41 88 0 0x0 0 0
r 2.86828 2 3 tcp 1040 ------- 1 0.0 3.0 42 82 0 0x0 0 0
+ 2.86828 3 2 ack 40 ------- 1 3.0 0.0 42 89 0 0x0 0 0
- 2.86828 3 2 ack 40 ------- 1 3.0 0.0 42 89 0 0x0 0 0
r 2.87868 2 3 tcp 1040 ------- 1 0.0 3.0 43 83 0 0x0 0 0
+ 2.87868 3 2 ack 40 ------- 1 3.0 0.0 43 90 0 0x0 0 0
- 2.87868 3 2 ack 40 ------- 1 3.0 0.0 43 90 0 0x0 0 0
r 2.91668 3 2 ack 40 ------- 1 3.0 0.0 37 84 0 0x0 0 0
+ 2.91668 2 0 ack 40 ------- 1 3.0 0.0 37 84 0 0x0 0 0
- 2.91668 2 0 ack 40 ------- 1 3.0 0.0 37 84 0 0x0 0 0
r 2.91672 2 0 ack 40 ------- 1 3.0 0.0 37 84 0 0x0 0 0
+ 2.91672 0 2 tcp 1040 ------- 1 0.0 3.0 44 91 0 0x0 0 0
- 2.91672 0 2 tcp 1040 ------- 1 0.0 3.0 44 91 0 0x0 0 0
r 2.91776 0 2 tcp 1040 ------- 1 0.0 3.0 44 91 0 0x0 0 0
+ 2.91776 2 3 tcp 1040 ------- 1 0.0 3.0 44 91 0 0x0 0 0
- 2.91776 2 3 tcp 1040 ------- 1 0.0 3.0 44 91 0 0x0 0 0
r 2.92708 3 2 ack 40 ------- 1 3.0 0.0 38 85 0 0x0 0 0
+ 2.92708 2 0 ack 40 ------- 1 3.0 0.0 38 85 0 0x0 0 0
- 2.92708 2 0 ack 40 ------- 1 3.0 0.0 38 85 0 0x0 0 0
r 2.92712 2 0 ack 40 ------- 1 3.0 0.0 38 85 0 0x0 0 0
+ 2.92712 0 2 tcp 1040 ------- 1 0.0 3.0 45 92 0 0x0 0 0
- 2.92712 0 2 tcp 1040 ------- 1 0.0 3.0 45 92 0 0x0 0 0
r 2.92816 0 2 tcp 1040 ------- 1 0.0 3.0 45 92 0 0x0 0 0
+ 2.92816 2 3 tcp 1040 ------- 1 0.0 3.0 45 92 0 0x0 0 0
- 2.92816 2 3 tcp 1040 ------- 1 0.0 3.0 45 92 0 0x0 0 0
r 2.93748 3 2 ack 40 ------- 1 3.0 0.0 39 86 0 0x0 0 0
+ 2.93748 2 0 ack 40 ------- 1 3.0 0.0 39 86 0 0x0 0 0
- 2.93748 2 0 ack 40 ------- 1 3.0 0.0 39 86 0 0x0 0 0
r 2.93752 2 0 ack 40 ------- 1 3.0 0.0 39 86 0 0x0 0 0
+ 2.93752 0 2 tcp 1040 ------- 1 0.0 3.0 46 93 0 0x0 0 0
- 2.93752 0 2 tcp 1040 ------- 1 0.0 3.0 46 93 0 0x0 0 0
r 2.93856 0 2 tcp 1040 ------- 1 0.0 3.0 46 93 0 0x0 0 0
+ 2.93856 2 3 tcp 1040 ------- 1 0.0 3.0 46 93 0 0x0 0 0
- 2.93856 2 3 tcp 1040 ------- 1 0.0 3.0 46 93 0 0x0 0 0
r 2.94788 3 2 ack 40 ------- 1 3.0 0.0 40 87 0 0x0 0 0